+ 0 0 1 poisson 210 ------- 0 0.0 1.0 0 0
- 0 0 1 poisson 210 ------- 0 0.0 1.0 0 0
+ 0 0 1 poisson 210 ------- 0 0.0 1.0 1 1
+ 0 0 1 poisson 210 ------- 0 0.0 1.0 2 2
+ 0 0 1 poisson 210 ------- 0 0.0 1.0 3 3
+ 0 0 1 poisson 210 ------- 0 0.0 1.0 4 4
+ 0 0 1 poisson 210 ------- 0 0.0 1.0 5 5
+ 0 0 1 poisson 210 ------- 0 0.0 1.0 6 6
+ 0 0 1 poisson 30 ------- 0 0.0 1.0 7 7
- 0.00168 0 1 poisson 210 ------- 0 0.0 1.0 1 1
- 0.00336 0 1 poisson 210 ------- 0 0.0 1.0 2 2
- 0.00504 0 1 poisson 210 ------- 0 0.0 1.0 3 3
- 0.00672 0 1 poisson 210 ------- 0 0.0 1.0 4 4
- 0.0084 0 1 poisson 210 ------- 0 0.0 1.0 5 5
- 0.01008 0 1 poisson 210 ------- 0 0.0 1.0 6 6
r 0.01168 0 1 poisson 210 ------- 0 0.0 1.0 0 0
- 0.01176 0 1 poisson 30 ------- 0 0.0 1.0 7 7
r 0.01336 0 1 poisson 210 ------- 0 0.0 1.0 1 1
r 0.01504 0 1 poisson 210 ------- 0 0.0 1.0 2 2
r 0.01672 0 1 poisson 210 ------- 0 0.0 1.0 3 3
r 0.0184 0 1 poisson 210 ------- 0 0.0 1.0 4 4
r 0.02008 0 1 poisson 210 ------- 0 0.0 1.0 5 5
r 0.02176 0 1 poisson 210 ------- 0 0.0 1.0 6 6
r 0.022 0 1 poisson 30 ------- 0 0.0 1.0 7 7
+ 0.100899 0 1 poisson 210 ------- 0 0.0 1.0 8 8
- 0.100899 0 1 poisson 210 ------- 0 0.0 1.0 8 8
+ 0.100899 0 1 poisson 210 ------- 0 0.0 1.0 9 9
+ 0.100899 0 1 poisson 210 ------- 0 0.0 1.0 10 10
+ 0.100899 0 1 poisson 210 ------- 0 0.0 1.0 11 11
+ 0.100899 0 1 poisson 210 ------- 0 0.0 1.0 12 12
+ 0.100899 0 1 poisson 210 ------- 0 0.0 1.0 13 13
+ 0.100899 0 1 poisson 210 ------- 0 0.0 1.0 14 14
+ 0.100899 0 1 poisson 30 ------- 0 0.0 1.0 15 15
- 0.102579 0 1 poisson 210 ------- 0 0.0 1.0 9 9
- 0.104259 0 1 poisson 210 ------- 0 0.0 1.0 10 10
- 0.105939 0 1 poisson 210 ------- 0 0.0 1.0 11 11
- 0.107619 0 1 poisson 210 ------- 0 0.0 1.0 12 12
+ 0.108316 0 1 poisson 210 ------- 0 0.0 1.0 16 16
+ 0.108316 0 1 poisson 210 ------- 0 0.0 1.0 17 17
+ 0.108316 0 1 poisson 210 ------- 0 0.0 1.0 18 18
+ 0.108316 0 1 poisson 210 ------- 0 0.0 1.0 19 19
+ 0.108316 0 1 poisson 210 ------- 0 0.0 1.0 20 20
+ 0.108316 0 1 poisson 210 ------- 0 0.0 1.0 21 21
+ 0.108316 0 1 poisson 210 ------- 0 0.0 1.0 22 22
d 0.108316 0 1 poisson 210 ------- 0 0.0 1.0 22 22
+ 0.108316 0 1 poisson 30 ------- 0 0.0 1.0 23 23
d 0.108316 0 1 poisson 30 ------- 0 0.0 1.0 23 23
- 0.109299 0 1 poisson 210 ------- 0 0.0 1.0 13 13
- 0.110979 0 1 poisson 210 ------- 0 0.0 1.0 14 14
r 0.112579 0 1 poisson 210 ------- 0 0.0 1.0 8 8
- 0.112659 0 1 poisson 30 ------- 0 0.0 1.0 15 15
- 0.112899 0 1 poisson 210 ------- 0 0.0 1.0 16 16
r 0.114259 0 1 poisson 210 ------- 0 0.0 1.0 9 9
- 0.114579 0 1 poisson 210 ------- 0 0.0 1.0 17 17
r 0.115939 0 1 poisson 210 ------- 0 0.0 1.0 10 10
- 0.116259 0 1 poisson 210 ------- 0 0.0 1.0 18 18
r 0.117619 0 1 poisson 210 ------- 0 0.0 1.0 11 11
- 0.117939 0 1 poisson 210 ------- 0 0.0 1.0 19 19
r 0.119299 0 1 poisson 210 ------- 0 0.0 1.0 12 12
- 0.119619 0 1 poisson 210 ------- 0 0.0 1.0 20 20
r 0.120979 0 1 poisson 210 ------- 0 0.0 1.0 13 13
- 0.121299 0 1 poisson 210 ------- 0 0.0 1.0 21 21
r 0.122659 0 1 poisson 210 ------- 0 0.0 1.0 14 14
r 0.122899 0 1 poisson 30 ------- 0 0.0 1.0 15 15
r 0.124579 0 1 poisson 210 ------- 0 0.0 1.0 16 16
r 0.126259 0 1 poisson 210 ------- 0 0.0 1.0 17 17
r 0.127939 0 1 poisson 210 ------- 0 0.0 1.0 18 18
r 0.129619 0 1 poisson 210 ------- 0 0.0 1.0 19 19
r 0.131299 0 1 poisson 210 ------- 0 0.0 1.0 20 20
r 0.132979 0 1 poisson 210 ------- 0 0.0 1.0 21 21
+ 0.162053 0 1 poisson 210 ------- 0 0.0 1.0 24 24
- 0.162053 0 1 poisson 210 ------- 0 0.0 1.0 24 24
+ 0.162053 0 1 poisson 210 ------- 0 0.0 1.0 25 25
+ 0.162053 0 1 poisson 210 ------- 0 0.0 1.0 26 26
+ 0.162053 0 1 poisson 210 ------- 0 0.0 1.0 27 27
+ 0.162053 0 1 poisson 210 ------- 0 0.0 1.0 28 28
+ 0.162053 0 1 poisson 210 ------- 0 0.0 1.0 29 29
+ 0.162053 0 1 poisson 210 ------- 0 0.0 1.0 30 30
+ 0.162053 0 1 poisson 30 ------- 0 0.0 1.0 31 31
- 0.163733 0 1 poisson 210 ------- 0 0.0 1.0 25 25
- 0.165413 0 1 poisson 210 ------- 0 0.0 1.0 26 26
- 0.167093 0 1 poisson 210 ------- 0 0.0 1.0 27 27
- 0.168773 0 1 poisson 210 ------- 0 0.0 1.0 28 28
- 0.170453 0 1 poisson 210 ------- 0 0.0 1.0 29 29
- 0.172133 0 1 poisson 210 ------- 0 0.0 1.0 30 30
r 0.173733 0 1 poisson 210 ------- 0 0.0 1.0 24 24
- 0.173813 0 1 poisson 30 ------- 0 0.0 1.0 31 31
r 0.175413 0 1 poisson 210 ------- 0 0.0 1.0 25 25
r 0.177093 0 1 poisson 210 ------- 0 0.0 1.0 26 26
r 0.178773 0 1 poisson 210 ------- 0 0.0 1.0 27 27
r 0.180453 0 1 poisson 210 ------- 0 0.0 1.0 28 28
r 0.182133 0 1 poisson 210 ------- 0 0.0 1.0 29 29
r 0.183813 0 1 poisson 210 ------- 0 0.0 1.0 30 30
r 0.184053 0 1 poisson 30 ------- 0 0.0 1.0 31 31
+ 0.192735 0 1 poisson 210 ------- 0 0.0 1.0 32 32
- 0.192735 0 1 poisson 210 ------- 0 0.0 1.0 32 32
+ 0.192735 0 1 poisson 210 ------- 0 0.0 1.0 33 33
+ 0.192735 0 1 poisson 210 ------- 0 0.0 1.0 34 34
+ 0.192735 0 1 poisson 210 ------- 0 0.0 1.0 35 35
+ 0.192735 0 1 poisson 210 ------- 0 0.0 1.0 36 36
+ 0.192735 0 1 poisson 210 ------- 0 0.0 1.0 37 37
+ 0.192735 0 1 poisson 210 ------- 0 0.0 1.0 38 38
+ 0.192735 0 1 poisson 30 ------- 0 0.0 1.0 39 39
- 0.194415 0 1 poisson 210 ------- 0 0.0 1.0 33 33
- 0.196095 0 1 poisson 210 ------- 0 0.0 1.0 34 34
- 0.197775 0 1 poisson 210 ------- 0 0.0 1.0 35 35
- 0.199455 0 1 poisson 210 ------- 0 0.0 1.0 36 36
- 0.201135 0 1 poisson 210 ------- 0 0.0 1.0 37 37
- 0.202815 0 1 poisson 210 ------- 0 0.0 1.0 38 38
+ 0.203072 0 1 poisson 210 ------- 0 0.0 1.0 40 40
+ 0.203072 0 1 poisson 210 ------- 0 0.0 1.0 41 41
+ 0.203072 0 1 poisson 210 ------- 0 0.0 1.0 42 42
+ 0.203072 0 1 poisson 210 ------- 0 0.0 1.0 43 43
+ 0.203072 0 1 poisson 210 ------- 0 0.0 1.0 44 44
+ 0.203072 0 1 poisson 210 ------- 0 0.0 1.0 45 45
+ 0.203072 0 1 poisson 210 ------- 0 0.0 1.0 46 46
+ 0.203072 0 1 poisson 30 ------- 0 0.0 1.0 47 47
r 0.204415 0 1 poisson 210 ------- 0 0.0 1.0 32 32
- 0.204495 0 1 poisson 30 ------- 0 0.0 1.0 39 39
- 0.204735 0 1 poisson 210 ------- 0 0.0 1.0 40 40
+ 0.205904 0 1 poisson 210 ------- 0 0.0 1.0 48 48
+ 0.205904 0 1 poisson 210 ------- 0 0.0 1.0 49 49
+ 0.205904 0 1 poisson 210 ------- 0 0.0 1.0 50 50
d 0.205904 0 1 poisson 210 ------- 0 0.0 1.0 50 50
+ 0.205904 0 1 poisson 210 ------- 0 0.0 1.0 51 51
d 0.205904 0 1 poisson 210 ------- 0 0.0 1.0 51 51
+ 0.205904 0 1 poisson 210 ------- 0 0.0 1.0 52 52
d 0.205904 0 1 poisson 210 ------- 0 0.0 1.0 52 52
+ 0.205904 0 1 poisson 210 ------- 0 0.0 1.0 53 53
d 0.205904 0 1 poisson 210 ------- 0 0.0 1.0 53 53
+ 0.205904 0 1 poisson 210 ------- 0 0.0 1.0 54 54
d 0.205904 0 1 poisson 210 ------- 0 0.0 1.0 54 54
+ 0.205904 0 1 poisson 30 ------- 0 0.0 1.0 55 55
d 0.205904 0 1 poisson 30 ------- 0 0.0 1.0 55 55
r 0.206095 0 1 poisson 210 ------- 0 0.0 1.0 33 33
- 0.206415 0 1 poisson 210 ------- 0 0.0 1.0 41 41
r 0.207775 0 1 poisson 210 ------- 0 0.0 1.0 34 34
- 0.208095 0 1 poisson 210 ------- 0 0.0 1.0 42 42
r 0.209455 0 1 poisson 210 ------- 0 0.0 1.0 35 35
- 0.209775 0 1 poisson 210 ------- 0 0.0 1.0 43 43
r 0.211135 0 1 poisson 210 ------- 0 0.0 1.0 36 36
- 0.211455 0 1 poisson 210 ------- 0 0.0 1.0 44 44
r 0.212815 0 1 poisson 210 ------- 0 0.0 1.0 37 37
- 0.213135 0 1 poisson 210 ------- 0 0.0 1.0 45 45
r 0.214495 0 1 poisson 210 ------- 0 0.0 1.0 38 38
r 0.214735 0 1 poisson 30 ------- 0 0.0 1.0 39 39
- 0.214815 0 1 poisson 210 ------- 0 0.0 1.0 46 46
r 0.216415 0 1 poisson 210 ------- 0 0.0 1.0 40 40
- 0.216495 0 1 poisson 30 ------- 0 0.0 1.0 47 47
- 0.216735 0 1 poisson 210 ------- 0 0.0 1.0 48 48
r 0.218095 0 1 poisson 210 ------- 0 0.0 1.0 41 41
- 0.218415 0 1 poisson 210 ------- 0 0.0 1.0 49 49
r 0.219775 0 1 poisson 210 ------- 0 0.0 1.0 42 42
+ 0.220578 0 1 poisson 210 ------- 0 0.0 1.0 56 56
- 0.220578 0 1 poisson 210 ------- 0 0.0 1.0 56 56
+ 0.220578 0 1 poisson 210 ------- 0 0.0 1.0 57 57
+ 0.220578 0 1 poisson 210 ------- 0 0.0 1.0 58 58
+ 0.220578 0 1 poisson 210 ------- 0 0.0 1.0 59 59
+ 0.220578 0 1 poisson 210 ------- 0 0.0 1.0 60 60
+ 0.220578 0 1 poisson 210 ------- 0 0.0 1.0 61 61
+ 0.220578 0 1 poisson 210 ------- 0 0.0 1.0 62 62
+ 0.220578 0 1 poisson 30 ------- 0 0.0 1.0 63 63
r 0.221455 0 1 poisson 210 ------- 0 0.0 1.0 43 43
- 0.222258 0 1 poisson 210 ------- 0 0.0 1.0 57 57
r 0.223135 0 1 poisson 210 ------- 0 0.0 1.0 44 44
+ 0.223139 0 1 poisson 210 ------- 0 0.0 1.0 64 64
+ 0.223139 0 1 poisson 210 ------- 0 0.0 1.0 65 65
+ 0.223139 0 1 poisson 210 ------- 0 0.0 1.0 66 66
+ 0.223139 0 1 poisson 210 ------- 0 0.0 1.0 67 67
d 0.223139 0 1 poisson 210 ------- 0 0.0 1.0 67 67
+ 0.223139 0 1 poisson 210 ------- 0 0.0 1.0 68 68
d 0.223139 0 1 poisson 210 ------- 0 0.0 1.0 68 68
+ 0.223139 0 1 poisson 210 ------- 0 0.0 1.0 69 69
d 0.223139 0 1 poisson 210 ------- 0 0.0 1.0 69 69
+ 0.223139 0 1 poisson 210 ------- 0 0.0 1.0 70 70
d 0.223139 0 1 poisson 210 ------- 0 0.0 1.0 70 70
+ 0.223139 0 1 poisson 30 ------- 0 0.0 1.0 71 71
d 0.223139 0 1 poisson 30 ------- 0 0.0 1.0 71 71
- 0.223938 0 1 poisson 210 ------- 0 0.0 1.0 58 58
r 0.224815 0 1 poisson 210 ------- 0 0.0 1.0 45 45
- 0.225618 0 1 poisson 210 ------- 0 0.0 1.0 59 59
r 0.226495 0 1 poisson 210 ------- 0 0.0 1.0 46 46
r 0.226735 0 1 poisson 30 ------- 0 0.0 1.0 47 47
- 0.227298 0 1 poisson 210 ------- 0 0.0 1.0 60 60
r 0.228415 0 1 poisson 210 ------- 0 0.0 1.0 48 48
- 0.228978 0 1 poisson 210 ------- 0 0.0 1.0 61 61
r 0.230095 0 1 poisson 210 ------- 0 0.0 1.0 49 49
- 0.230658 0 1 poisson 210 ------- 0 0.0 1.0 62 62
r 0.232258 0 1 poisson 210 ------- 0 0.0 1.0 56 56
- 0.232338 0 1 poisson 30 ------- 0 0.0 1.0 63 63
- 0.232578 0 1 poisson 210 ------- 0 0.0 1.0 64 64
r 0.233938 0 1 poisson 210 ------- 0 0.0 1.0 57 57
- 0.234258 0 1 poisson 210 ------- 0 0.0 1.0 65 65
r 0.235618 0 1 poisson 210 ------- 0 0.0 1.0 58 58
- 0.235938 0 1 poisson 210 ------- 0 0.0 1.0 66 66
r 0.237298 0 1 poisson 210 ------- 0 0.0 1.0 59 59
r 0.238978 0 1 poisson 210 ------- 0 0.0 1.0 60 60
r 0.240658 0 1 poisson 210 ------- 0 0.0 1.0 61 61
+ 0.241453 0 1 poisson 210 ------- 0 0.0 1.0 72 72
- 0.241453 0 1 poisson 210 ------- 0 0.0 1.0 72 72
+ 0.241453 0 1 poisson 210 ------- 0 0.0 1.0 73 73
+ 0.241453 0 1 poisson 210 ------- 0 0.0 1.0 74 74
+ 0.241453 0 1 poisson 210 ------- 0 0.0 1.0 75 75
+ 0.241453 0 1 poisson 210 ------- 0 0.0 1.0 76 76
+ 0.241453 0 1 poisson 210 ------- 0 0.0 1.0 77 77
+ 0.241453 0 1 poisson 210 ------- 0 0.0 1.0 78 78
+ 0.241453 0 1 poisson 30 ------- 0 0.0 1.0 79 79
r 0.242338 0 1 poisson 210 ------- 0 0.0 1.0 62 62
r 0.242578 0 1 poisson 30 ------- 0 0.0 1.0 63 63
- 0.243133 0 1 poisson 210 ------- 0 0.0 1.0 73 73
r 0.244258 0 1 poisson 210 ------- 0 0.0 1.0 64 64
- 0.244813 0 1 poisson 210 ------- 0 0.0 1.0 74 74
r 0.245938 0 1 poisson 210 ------- 0 0.0 1.0 65 65
- 0.246493 0 1 poisson 210 ------- 0 0.0 1.0 75 75
+ 0.247113 0 1 poisson 210 ------- 0 0.0 1.0 80 80
+ 0.247113 0 1 poisson 210 ------- 0 0.0 1.0 81 81
+ 0.247113 0 1 poisson 210 ------- 0 0.0 1.0 82 82
+ 0.247113 0 1 poisson 210 ------- 0 0.0 1.0 83 83
+ 0.247113 0 1 poisson 210 ------- 0 0.0 1.0 84 84
+ 0.247113 0 1 poisson 210 ------- 0 0.0 1.0 85 85
d 0.247113 0 1 poisson 210 ------- 0 0.0 1.0 85 85
+ 0.247113 0 1 poisson 210 ------- 0 0.0 1.0 86 86
d 0.247113 0 1 poisson 210 ------- 0 0.0 1.0 86 86
+ 0.247113 0 1 poisson 30 ------- 0 0.0 1.0 87 87
d 0.247113 0 1 poisson 30 ------- 0 0.0 1.0 87 87
r 0.247618 0 1 poisson 210 ------- 0 0.0 1.0 66 66
- 0.248173 0 1 poisson 210 ------- 0 0.0 1.0 76 76
- 0.249853 0 1 poisson 210 ------- 0 0.0 1.0 77 77
- 0.251533 0 1 poisson 210 ------- 0 0.0 1.0 78 78
r 0.253133 0 1 poisson 210 ------- 0 0.0 1.0 72 72
- 0.253213 0 1 poisson 30 ------- 0 0.0 1.0 79 79
- 0.253453 0 1 poisson 210 ------- 0 0.0 1.0 80 80
r 0.254813 0 1 poisson 210 ------- 0 0.0 1.0 73 73
- 0.255133 0 1 poisson 210 ------- 0 0.0 1.0 81 81
r 0.256493 0 1 poisson 210 ------- 0 0.0 1.0 74 74
- 0.256813 0 1 poisson 210 ------- 0 0.0 1.0 82 82
r 0.258173 0 1 poisson 210 ------- 0 0.0 1.0 75 75
- 0.258493 0 1 poisson 210 ------- 0 0.0 1.0 83 83
r 0.259853 0 1 poisson 210 ------- 0 0.0 1.0 76 76
- 0.260173 0 1 poisson 210 ------- 0 0.0 1.0 84 84
r 0.261533 0 1 poisson 210 ------- 0 0.0 1.0 77 77
+ 0.261944 0 1 poisson 210 ------- 0 0.0 1.0 88 88
- 0.261944 0 1 poisson 210 ------- 0 0.0 1.0 88 88
+ 0.261944 0 1 poisson 210 ------- 0 0.0 1.0 89 89
+ 0.261944 0 1 poisson 210 ------- 0 0.0 1.0 90 90
+ 0.261944 0 1 poisson 210 ------- 0 0.0 1.0 91 91
+ 0.261944 0 1 poisson 210 ------- 0 0.0 1.0 92 92
+ 0.261944 0 1 poisson 210 ------- 0 0.0 1.0 93 93
+ 0.261944 0 1 poisson 210 ------- 0 0.0 1.0 94 94
+ 0.261944 0 1 poisson 30 ------- 0 0.0 1.0 95 95
r 0.263213 0 1 poisson 210 ------- 0 0.0 1.0 78 78
r 0.263453 0 1 poisson 30 ------- 0 0.0 1.0 79 79
- 0.263624 0 1 poisson 210 ------- 0 0.0 1.0 89 89
+ 0.264202 0 1 poisson 210 ------- 0 0.0 1.0 96 96
+ 0.264202 0 1 poisson 210 ------- 0 0.0 1.0 97 97
+ 0.264202 0 1 poisson 210 ------- 0 0.0 1.0 98 98
+ 0.264202 0 1 poisson 210 ------- 0 0.0 1.0 99 99
d 0.264202 0 1 poisson 210 ------- 0 0.0 1.0 99 99
+ 0.264202 0 1 poisson 210 ------- 0 0.0 1.0 100 100
d 0.264202 0 1 poisson 210 ------- 0 0.0 1.0 100 100
+ 0.264202 0 1 poisson 210 ------- 0 0.0 1.0 101 101
d 0.264202 0 1 poisson 210 ------- 0 0.0 1.0 101 101
+ 0.264202 0 1 poisson 210 ------- 0 0.0 1.0 102 102
d 0.264202 0 1 poisson 210 ------- 0 0.0 1.0 102 102
+ 0.264202 0 1 poisson 30 ------- 0 0.0 1.0 103 103
d 0.264202 0 1 poisson 30 ------- 0 0.0 1.0 103 103
r 0.265133 0 1 poisson 210 ------- 0 0.0 1.0 80 80
- 0.265304 0 1 poisson 210 ------- 0 0.0 1.0 90 90
r 0.266813 0 1 poisson 210 ------- 0 0.0 1.0 81 81
- 0.266984 0 1 poisson 210 ------- 0 0.0 1.0 91 91
r 0.268493 0 1 poisson 210 ------- 0 0.0 1.0 82 82
- 0.268664 0 1 poisson 210 ------- 0 0.0 1.0 92 92
r 0.270173 0 1 poisson 210 ------- 0 0.0 1.0 83 83
- 0.270344 0 1 poisson 210 ------- 0 0.0 1.0 93 93
r 0.271853 0 1 poisson 210 ------- 0 0.0 1.0 84 84
- 0.272024 0 1 poisson 210 ------- 0 0.0 1.0 94 94
r 0.273624 0 1 poisson 210 ------- 0 0.0 1.0 88 88
- 0.273704 0 1 poisson 30 ------- 0 0.0 1.0 95 95
- 0.273944 0 1 poisson 210 ------- 0 0.0 1.0 96 96
r 0.275304 0 1 poisson 210 ------- 0 0.0 1.0 89 89
- 0.275624 0 1 poisson 210 ------- 0 0.0 1.0 97 97
r 0.276984 0 1 poisson 210 ------- 0 0.0 1.0 90 90
- 0.277304 0 1 poisson 210 ------- 0 0.0 1.0 98 98
r 0.278664 0 1 poisson 210 ------- 0 0.0 1.0 91 91
r 0.280344 0 1 poisson 210 ------- 0 0.0 1.0 92 92
r 0.282024 0 1 poisson 210 ------- 0 0.0 1.0 93 93
r 0.283704 0 1 poisson 210 ------- 0 0.0 1.0 94 94
r 0.283944 0 1 poisson 30 ------- 0 0.0 1.0 95 95
r 0.285624 0 1 poisson 210 ------- 0 0.0 1.0 96 96
+ 0.287027 0 1 poisson 210 ------- 0 0.0 1.0 104 104
- 0.287027 0 1 poisson 210 ------- 0 0.0 1.0 104 104
+ 0.287027 0 1 poisson 210 ------- 0 0.0 1.0 105 105
+ 0.287027 0 1 poisson 210 ------- 0 0.0 1.0 106 106
+ 0.287027 0 1 poisson 210 ------- 0 0.0 1.0 107 107
+ 0.287027 0 1 poisson 210 ------- 0 0.0 1.0 108 108
+ 0.287027 0 1 poisson 210 ------- 0 0.0 1.0 109 109
+ 0.287027 0 1 poisson 210 ------- 0 0.0 1.0 110 110
+ 0.287027 0 1 poisson 30 ------- 0 0.0 1.0 111 111
r 0.287304 0 1 poisson 210 ------- 0 0.0 1.0 97 97
- 0.288707 0 1 poisson 210 ------- 0 0.0 1.0 105 105
r 0.288984 0 1 poisson 210 ------- 0 0.0 1.0 98 98
- 0.290387 0 1 poisson 210 ------- 0 0.0 1.0 106 106
- 0.292067 0 1 poisson 210 ------- 0 0.0 1.0 107 107
- 0.293747 0 1 poisson 210 ------- 0 0.0 1.0 108 108
- 0.295427 0 1 poisson 210 ------- 0 0.0 1.0 109 109
- 0.297107 0 1 poisson 210 ------- 0 0.0 1.0 110 110
r 0.298707 0 1 poisson 210 ------- 0 0.0 1.0 104 104
- 0.298787 0 1 poisson 30 ------- 0 0.0 1.0 111 111
r 0.300387 0 1 poisson 210 ------- 0 0.0 1.0 105 105
r 0.302067 0 1 poisson 210 ------- 0 0.0 1.0 106 106
r 0.303747 0 1 poisson 210 ------- 0 0.0 1.0 107 107
r 0.305427 0 1 poisson 210 ------- 0 0.0 1.0 108 108
r 0.307107 0 1 poisson 210 ------- 0 0.0 1.0 109 109
r 0.308787 0 1 poisson 210 ------- 0 0.0 1.0 110 110
r 0.309027 0 1 poisson 30 ------- 0 0.0 1.0 111 111
+ 0.326834 0 1 poisson 210 ------- 0 0.0 1.0 112 112
- 0.326834 0 1 poisson 210 ------- 0 0.0 1.0 112 112
+ 0.326834 0 1 poisson 210 ------- 0 0.0 1.0 113 113
+ 0.326834 0 1 poisson 210 ------- 0 0.0 1.0 114 114
+ 0.326834 0 1 poisson 210 ------- 0 0.0 1.0 115 115
+ 0.326834 0 1 poisson 210 ------- 0 0.0 1.0 116 116
+ 0.326834 0 1 poisson 210 ------- 0 0.0 1.0 117 117
+ 0.326834 0 1 poisson 210 ------- 0 0.0 1.0 118 118
+ 0.326834 0 1 poisson 30 ------- 0 0.0 1.0 119 119
- 0.328514 0 1 poisson 210 ------- 0 0.0 1.0 113 113
- 0.330194 0 1 poisson 210 ------- 0 0.0 1.0 114 114
- 0.331874 0 1 poisson 210 ------- 0 0.0 1.0 115 115
+ 0.33247 0 1 poisson 210 ------- 0 0.0 1.0 120 120
+ 0.33247 0 1 poisson 210 ------- 0 0.0 1.0 121 121
+ 0.33247 0 1 poisson 210 ------- 0 0.0 1.0 122 122
+ 0.33247 0 1 poisson 210 ------- 0 0.0 1.0 123 123
+ 0.33247 0 1 poisson 210 ------- 0 0.0 1.0 124 124
+ 0.33247 0 1 poisson 210 ------- 0 0.0 1.0 125 125
d 0.33247 0 1 poisson 210 ------- 0 0.0 1.0 125 125
+ 0.33247 0 1 poisson 210 ------- 0 0.0 1.0 126 126
d 0.33247 0 1 poisson 210 ------- 0 0.0 1.0 126 126
+ 0.33247 0 1 poisson 30 ------- 0 0.0 1.0 127 127
d 0.33247 0 1 poisson 30 ------- 0 0.0 1.0 127 127
- 0.333554 0 1 poisson 210 ------- 0 0.0 1.0 116 116
- 0.335234 0 1 poisson 210 ------- 0 0.0 1.0 117 117
- 0.336914 0 1 poisson 210 ------- 0 0.0 1.0 118 118
r 0.338514 0 1 poisson 210 ------- 0 0.0 1.0 112 112
- 0.338594 0 1 poisson 30 ------- 0 0.0 1.0 119 119
- 0.338834 0 1 poisson 210 ------- 0 0.0 1.0 120 120
r 0.340194 0 1 poisson 210 ------- 0 0.0 1.0 113 113
- 0.340514 0 1 poisson 210 ------- 0 0.0 1.0 121 121
r 0.341874 0 1 poisson 210 ------- 0 0.0 1.0 114 114
- 0.342194 0 1 poisson 210 ------- 0 0.0 1.0 122 122
r 0.343554 0 1 poisson 210 ------- 0 0.0 1.0 115 115
- 0.343874 0 1 poisson 210 ------- 0 0.0 1.0 123 123
r 0.345234 0 1 poisson 210 ------- 0 0.0 1.0 116 116
- 0.345554 0 1 poisson 210 ------- 0 0.0 1.0 124 124
r 0.346914 0 1 poisson 210 ------- 0 0.0 1.0 117 117
r 0.348594 0 1 poisson 210 ------- 0 0.0 1.0 118 118
r 0.348834 0 1 poisson 30 ------- 0 0.0 1.0 119 119
r 0.350514 0 1 poisson 210 ------- 0 0.0 1.0 120 120
r 0.352194 0 1 poisson 210 ------- 0 0.0 1.0 121 121
r 0.353874 0 1 poisson 210 ------- 0 0.0 1.0 122 122
r 0.355554 0 1 poisson 210 ------- 0 0.0 1.0 123 123
r 0.357234 0 1 poisson 210 ------- 0 0.0 1.0 124 124
+ 0.359921 0 1 poisson 210 ------- 0 0.0 1.0 128 128
- 0.359921 0 1 poisson 210 ------- 0 0.0 1.0 128 128
+ 0.359921 0 1 poisson 210 ------- 0 0.0 1.0 129 129
+ 0.359921 0 1 poisson 210 ------- 0 0.0 1.0 130 130
+ 0.359921 0 1 poisson 210 ------- 0 0.0 1.0 131 131
+ 0.359921 0 1 poisson 210 ------- 0 0.0 1.0 132 132
+ 0.359921 0 1 poisson 210 ------- 0 0.0 1.0 133 133
+ 0.359921 0 1 poisson 210 ------- 0 0.0 1.0 134 134
+ 0.359921 0 1 poisson 30 ------- 0 0.0 1.0 135 135
- 0.361601 0 1 poisson 210 ------- 0 0.0 1.0 129 129
+ 0.36183 0 1 poisson 210 ------- 0 0.0 1.0 136 136
+ 0.36183 0 1 poisson 210 ------- 0 0.0 1.0 137 137
+ 0.36183 0 1 poisson 210 ------- 0 0.0 1.0 138 138
+ 0.36183 0 1 poisson 210 ------- 0 0.0 1.0 139 139
d 0.36183 0 1 poisson 210 ------- 0 0.0 1.0 139 139
+ 0.36183 0 1 poisson 210 ------- 0 0.0 1.0 140 140
d 0.36183 0 1 poisson 210 ------- 0 0.0 1.0 140 140
+ 0.36183 0 1 poisson 210 ------- 0 0.0 1.0 141 141
d 0.36183 0 1 poisson 210 ------- 0 0.0 1.0 141 141
+ 0.36183 0 1 poisson 210 ------- 0 0.0 1.0 142 142
d 0.36183 0 1 poisson 210 ------- 0 0.0 1.0 142 142
+ 0.36183 0 1 poisson 30 ------- 0 0.0 1.0 143 143
d 0.36183 0 1 poisson 30 ------- 0 0.0 1.0 143 143
- 0.363281 0 1 poisson 210 ------- 0 0.0 1.0 130 130
- 0.364961 0 1 poisson 210 ------- 0 0.0 1.0 131 131
- 0.366641 0 1 poisson 210 ------- 0 0.0 1.0 132 132
- 0.368321 0 1 poisson 210 ------- 0 0.0 1.0 133 133
- 0.370001 0 1 poisson 210 ------- 0 0.0 1.0 134 134
r 0.371601 0 1 poisson 210 ------- 0 0.0 1.0 128 128
- 0.371681 0 1 poisson 30 ------- 0 0.0 1.0 135 135
- 0.371921 0 1 poisson 210 ------- 0 0.0 1.0 136 136
+ 0.372679 0 1 poisson 210 ------- 0 0.0 1.0 144 144
+ 0.372679 0 1 poisson 210 ------- 0 0.0 1.0 145 145
+ 0.372679 0 1 poisson 210 ------- 0 0.0 1.0 146 146
+ 0.372679 0 1 poisson 210 ------- 0 0.0 1.0 147 147
+ 0.372679 0 1 poisson 210 ------- 0 0.0 1.0 148 148
+ 0.372679 0 1 poisson 210 ------- 0 0.0 1.0 149 149
+ 0.372679 0 1 poisson 210 ------- 0 0.0 1.0 150 150
+ 0.372679 0 1 poisson 30 ------- 0 0.0 1.0 151 151
d 0.372679 0 1 poisson 30 ------- 0 0.0 1.0 151 151
r 0.373281 0 1 poisson 210 ------- 0 0.0 1.0 129 129
- 0.373601 0 1 poisson 210 ------- 0 0.0 1.0 137 137
r 0.374961 0 1 poisson 210 ------- 0 0.0 1.0 130 130
- 0.375281 0 1 poisson 210 ------- 0 0.0 1.0 138 138
r 0.376641 0 1 poisson 210 ------- 0 0.0 1.0 131 131
- 0.376961 0 1 poisson 210 ------- 0 0.0 1.0 144 144
r 0.378321 0 1 poisson 210 ------- 0 0.0 1.0 132 132
- 0.378641 0 1 poisson 210 ------- 0 0.0 1.0 145 145
r 0.380001 0 1 poisson 210 ------- 0 0.0 1.0 133 133
- 0.380321 0 1 poisson 210 ------- 0 0.0 1.0 146 146
r 0.381681 0 1 poisson 210 ------- 0 0.0 1.0 134 134
r 0.381921 0 1 poisson 30 ------- 0 0.0 1.0 135 135
- 0.382001 0 1 poisson 210 ------- 0 0.0 1.0 147 147
r 0.383601 0 1 poisson 210 ------- 0 0.0 1.0 136 136
- 0.383681 0 1 poisson 210 ------- 0 0.0 1.0 148 148
r 0.385281 0 1 poisson 210 ------- 0 0.0 1.0 137 137
- 0.385361 0 1 poisson 210 ------- 0 0.0 1.0 149 149
r 0.386961 0 1 poisson 210 ------- 0 0.0 1.0 138 138
- 0.387041 0 1 poisson 210 ------- 0 0.0 1.0 150 150
r 0.388641 0 1 poisson 210 ------- 0 0.0 1.0 144 144
r 0.390321 0 1 poisson 210 ------- 0 0.0 1.0 145 145
r 0.392001 0 1 poisson 210 ------- 0 0.0 1.0 146 146
r 0.393681 0 1 poisson 210 ------- 0 0.0 1.0 147 147
+ 0.394709 0 1 poisson 210 ------- 0 0.0 1.0 152 152
- 0.394709 0 1 poisson 210 ------- 0 0.0 1.0 152 152
+ 0.394709 0 1 poisson 210 ------- 0 0.0 1.0 153 153
+ 0.394709 0 1 poisson 210 ------- 0 0.0 1.0 154 154
+ 0.394709 0 1 poisson 210 ------- 0 0.0 1.0 155 155
+ 0.394709 0 1 poisson 210 ------- 0 0.0 1.0 156 156
+ 0.394709 0 1 poisson 210 ------- 0 0.0 1.0 157 157
+ 0.394709 0 1 poisson 210 ------- 0 0.0 1.0 158 158
+ 0.394709 0 1 poisson 30 ------- 0 0.0 1.0 159 159
r 0.395361 0 1 poisson 210 ------- 0 0.0 1.0 148 148
- 0.396389 0 1 poisson 210 ------- 0 0.0 1.0 153 153
r 0.397041 0 1 poisson 210 ------- 0 0.0 1.0 149 149
- 0.398069 0 1 poisson 210 ------- 0 0.0 1.0 154 154
r 0.398721 0 1 poisson 210 ------- 0 0.0 1.0 150 150
- 0.399749 0 1 poisson 210 ------- 0 0.0 1.0 155 155
- 0.401429 0 1 poisson 210 ------- 0 0.0 1.0 156 156
- 0.403109 0 1 poisson 210 ------- 0 0.0 1.0 157 157
- 0.404789 0 1 poisson 210 ------- 0 0.0 1.0 158 158
r 0.406389 0 1 poisson 210 ------- 0 0.0 1.0 152 152
- 0.406469 0 1 poisson 30 ------- 0 0.0 1.0 159 159
r 0.408069 0 1 poisson 210 ------- 0 0.0 1.0 153 153
r 0.409749 0 1 poisson 210 ------- 0 0.0 1.0 154 154
r 0.411429 0 1 poisson 210 ------- 0 0.0 1.0 155 155
r 0.413109 0 1 poisson 210 ------- 0 0.0 1.0 156 156
r 0.414789 0 1 poisson 210 ------- 0 0.0 1.0 157 157
r 0.416469 0 1 poisson 210 ------- 0 0.0 1.0 158 158
r 0.416709 0 1 poisson 30 ------- 0 0.0 1.0 159 159
+ 0.424558 0 1 poisson 210 ------- 0 0.0 1.0 160 160
- 0.424558 0 1 poisson 210 ------- 0 0.0 1.0 160 160
+ 0.424558 0 1 poisson 210 ------- 0 0.0 1.0 161 161
+ 0.424558 0 1 poisson 210 ------- 0 0.0 1.0 162 162
+ 0.424558 0 1 poisson 210 ------- 0 0.0 1.0 163 163
+ 0.424558 0 1 poisson 210 ------- 0 0.0 1.0 164 164
+ 0.424558 0 1 poisson 210 ------- 0 0.0 1.0 165 165
+ 0.424558 0 1 poisson 210 ------- 0 0.0 1.0 166 166
+ 0.424558 0 1 poisson 30 ------- 0 0.0 1.0 167 167
- 0.426238 0 1 poisson 210 ------- 0 0.0 1.0 161 161
+ 0.427266 0 1 poisson 210 ------- 0 0.0 1.0 168 168
+ 0.427266 0 1 poisson 210 ------- 0 0.0 1.0 169 169
+ 0.427266 0 1 poisson 210 ------- 0 0.0 1.0 170 170
+ 0.427266 0 1 poisson 210 ------- 0 0.0 1.0 171 171
d 0.427266 0 1 poisson 210 ------- 0 0.0 1.0 171 171
+ 0.427266 0 1 poisson 210 ------- 0 0.0 1.0 172 172
d 0.427266 0 1 poisson 210 ------- 0 0.0 1.0 172 172
+ 0.427266 0 1 poisson 210 ------- 0 0.0 1.0 173 173
d 0.427266 0 1 poisson 210 ------- 0 0.0 1.0 173 173
+ 0.427266 0 1 poisson 210 ------- 0 0.0 1.0 174 174
d 0.427266 0 1 poisson 210 ------- 0 0.0 1.0 174 174
+ 0.427266 0 1 poisson 30 ------- 0 0.0 1.0 175 175
d 0.427266 0 1 poisson 30 ------- 0 0.0 1.0 175 175
- 0.427918 0 1 poisson 210 ------- 0 0.0 1.0 162 162
- 0.429598 0 1 poisson 210 ------- 0 0.0 1.0 163 163
- 0.431278 0 1 poisson 210 ------- 0 0.0 1.0 164 164
- 0.432958 0 1 poisson 210 ------- 0 0.0 1.0 165 165
- 0.434638 0 1 poisson 210 ------- 0 0.0 1.0 166 166
r 0.436238 0 1 poisson 210 ------- 0 0.0 1.0 160 160
- 0.436318 0 1 poisson 30 ------- 0 0.0 1.0 167 167
- 0.436558 0 1 poisson 210 ------- 0 0.0 1.0 168 168
r 0.437918 0 1 poisson 210 ------- 0 0.0 1.0 161 161
- 0.438238 0 1 poisson 210 ------- 0 0.0 1.0 169 169
r 0.439598 0 1 poisson 210 ------- 0 0.0 1.0 162 162
- 0.439918 0 1 poisson 210 ------- 0 0.0 1.0 170 170
+ 0.440572 0 1 poisson 210 ------- 0 0.0 1.0 176 176
+ 0.440572 0 1 poisson 210 ------- 0 0.0 1.0 177 177
+ 0.440572 0 1 poisson 210 ------- 0 0.0 1.0 178 178
+ 0.440572 0 1 poisson 210 ------- 0 0.0 1.0 179 179
+ 0.440572 0 1 poisson 210 ------- 0 0.0 1.0 180 180
+ 0.440572 0 1 poisson 210 ------- 0 0.0 1.0 181 181
+ 0.440572 0 1 poisson 210 ------- 0 0.0 1.0 182 182
+ 0.440572 0 1 poisson 30 ------- 0 0.0 1.0 183 183
r 0.441278 0 1 poisson 210 ------- 0 0.0 1.0 163 163
- 0.441598 0 1 poisson 210 ------- 0 0.0 1.0 176 176
r 0.442958 0 1 poisson 210 ------- 0 0.0 1.0 164 164
- 0.443278 0 1 poisson 210 ------- 0 0.0 1.0 177 177
r 0.444638 0 1 poisson 210 ------- 0 0.0 1.0 165 165
- 0.444958 0 1 poisson 210 ------- 0 0.0 1.0 178 178
r 0.446318 0 1 poisson 210 ------- 0 0.0 1.0 166 166
r 0.446558 0 1 poisson 30 ------- 0 0.0 1.0 167 167
- 0.446638 0 1 poisson 210 ------- 0 0.0 1.0 179 179
r 0.448238 0 1 poisson 210 ------- 0 0.0 1.0 168 168
- 0.448318 0 1 poisson 210 ------- 0 0.0 1.0 180 180
r 0.449918 0 1 poisson 210 ------- 0 0.0 1.0 169 169
- 0.449998 0 1 poisson 210 ------- 0 0.0 1.0 181 181
r 0.451598 0 1 poisson 210 ------- 0 0.0 1.0 170 170
- 0.451678 0 1 poisson 210 ------- 0 0.0 1.0 182 182
r 0.453278 0 1 poisson 210 ------- 0 0.0 1.0 176 176
- 0.453358 0 1 poisson 30 ------- 0 0.0 1.0 183 183
r 0.454958 0 1 poisson 210 ------- 0 0.0 1.0 177 177
r 0.456638 0 1 poisson 210 ------- 0 0.0 1.0 178 178
+ 0.457681 0 1 poisson 210 ------- 0 0.0 1.0 184 184
- 0.457681 0 1 poisson 210 ------- 0 0.0 1.0 184 184
+ 0.457681 0 1 poisson 210 ------- 0 0.0 1.0 185 185
+ 0.457681 0 1 poisson 210 ------- 0 0.0 1.0 186 186
+ 0.457681 0 1 poisson 210 ------- 0 0.0 1.0 187 187
+ 0.457681 0 1 poisson 210 ------- 0 0.0 1.0 188 188
+ 0.457681 0 1 poisson 210 ------- 0 0.0 1.0 189 189
+ 0.457681 0 1 poisson 210 ------- 0 0.0 1.0 190 190
+ 0.457681 0 1 poisson 30 ------- 0 0.0 1.0 191 191
r 0.458318 0 1 poisson 210 ------- 0 0.0 1.0 179 179
- 0.459361 0 1 poisson 210 ------- 0 0.0 1.0 185 185
r 0.459998 0 1 poisson 210 ------- 0 0.0 1.0 180 180
- 0.461041 0 1 poisson 210 ------- 0 0.0 1.0 186 186
r 0.461678 0 1 poisson 210 ------- 0 0.0 1.0 181 181
- 0.462721 0 1 poisson 210 ------- 0 0.0 1.0 187 187
r 0.463358 0 1 poisson 210 ------- 0 0.0 1.0 182 182
r 0.463598 0 1 poisson 30 ------- 0 0.0 1.0 183 183
- 0.464401 0 1 poisson 210 ------- 0 0.0 1.0 188 188
- 0.466081 0 1 poisson 210 ------- 0 0.0 1.0 189 189
- 0.467761 0 1 poisson 210 ------- 0 0.0 1.0 190 190
+ 0.468984 0 1 poisson 210 ------- 0 0.0 1.0 192 192
+ 0.468984 0 1 poisson 210 ------- 0 0.0 1.0 193 193
+ 0.468984 0 1 poisson 210 ------- 0 0.0 1.0 194 194
+ 0.468984 0 1 poisson 210 ------- 0 0.0 1.0 195 195
+ 0.468984 0 1 poisson 210 ------- 0 0.0 1.0 196 196
+ 0.468984 0 1 poisson 210 ------- 0 0.0 1.0 197 197
+ 0.468984 0 1 poisson 210 ------- 0 0.0 1.0 198 198
+ 0.468984 0 1 poisson 30 ------- 0 0.0 1.0 199 199
r 0.469361 0 1 poisson 210 ------- 0 0.0 1.0 184 184
- 0.469441 0 1 poisson 30 ------- 0 0.0 1.0 191 191
- 0.469681 0 1 poisson 210 ------- 0 0.0 1.0 192 192
r 0.471041 0 1 poisson 210 ------- 0 0.0 1.0 185 185
- 0.471361 0 1 poisson 210 ------- 0 0.0 1.0 193 193
r 0.472721 0 1 poisson 210 ------- 0 0.0 1.0 186 186
- 0.473041 0 1 poisson 210 ------- 0 0.0 1.0 194 194
r 0.474401 0 1 poisson 210 ------- 0 0.0 1.0 187 187
- 0.474721 0 1 poisson 210 ------- 0 0.0 1.0 195 195
r 0.476081 0 1 poisson 210 ------- 0 0.0 1.0 188 188
- 0.476401 0 1 poisson 210 ------- 0 0.0 1.0 196 196
+ 0.477277 0 1 poisson 210 ------- 0 0.0 1.0 200 200
+ 0.477277 0 1 poisson 210 ------- 0 0.0 1.0 201 201
+ 0.477277 0 1 poisson 210 ------- 0 0.0 1.0 202 202
+ 0.477277 0 1 poisson 210 ------- 0 0.0 1.0 203 203
+ 0.477277 0 1 poisson 210 ------- 0 0.0 1.0 204 204
+ 0.477277 0 1 poisson 210 ------- 0 0.0 1.0 205 205
+ 0.477277 0 1 poisson 210 ------- 0 0.0 1.0 206 206
d 0.477277 0 1 poisson 210 ------- 0 0.0 1.0 206 206
+ 0.477277 0 1 poisson 30 ------- 0 0.0 1.0 207 207
d 0.477277 0 1 poisson 30 ------- 0 0.0 1.0 207 207
r 0.477761 0 1 poisson 210 ------- 0 0.0 1.0 189 189
- 0.478081 0 1 poisson 210 ------- 0 0.0 1.0 197 197
r 0.479441 0 1 poisson 210 ------- 0 0.0 1.0 190 190
r 0.479681 0 1 poisson 30 ------- 0 0.0 1.0 191 191
- 0.479761 0 1 poisson 210 ------- 0 0.0 1.0 198 198
r 0.481361 0 1 poisson 210 ------- 0 0.0 1.0 192 192
- 0.481441 0 1 poisson 30 ------- 0 0.0 1.0 199 199
- 0.481681 0 1 poisson 210 ------- 0 0.0 1.0 200 200
r 0.483041 0 1 poisson 210 ------- 0 0.0 1.0 193 193
- 0.483361 0 1 poisson 210 ------- 0 0.0 1.0 201 201
r 0.484721 0 1 poisson 210 ------- 0 0.0 1.0 194 194
- 0.485041 0 1 poisson 210 ------- 0 0.0 1.0 202 202
r 0.486401 0 1 poisson 210 ------- 0 0.0 1.0 195 195
- 0.486721 0 1 poisson 210 ------- 0 0.0 1.0 203 203
+ 0.486919 0 1 poisson 210 ------- 0 0.0 1.0 208 208
+ 0.486919 0 1 poisson 210 ------- 0 0.0 1.0 209 209
+ 0.486919 0 1 poisson 210 ------- 0 0.0 1.0 210 210
+ 0.486919 0 1 poisson 210 ------- 0 0.0 1.0 211 211
+ 0.486919 0 1 poisson 210 ------- 0 0.0 1.0 212 212
+ 0.486919 0 1 poisson 210 ------- 0 0.0 1.0 213 213