V -t * -v 1.0a5 -a 0
A -t * -n 1 -p 0 -o 0xffffffff -c 31 -a 1
A -t * -h 1 -m 2147483647 -s 0
n -t * -a 0 -s 0 -S UP -v circle -c black -i black
n -t * -a 1 -s 1 -S UP -v circle -c black -i black
l -t * -s 0 -d 1 -S UP -r 1000000 -D 0.01 -c black
+ -t 0 -s 0 -d 1 -p poisson -e 210 -c 0 -i 0 -a 0 -x {0.0 1.0 0 ------- null}
- -t 0 -s 0 -d 1 -p poisson -e 210 -c 0 -i 0 -a 0 -x {0.0 1.0 0 ------- null}
h -t 0 -s 0 -d 1 -p poisson -e 210 -c 0 -i 0 -a 0 -x {0.0 1.0 -1 ------- null}
+ -t 0 -s 0 -d 1 -p poisson -e 210 -c 0 -i 1 -a 0 -x {0.0 1.0 1 ------- null}
+ -t 0 -s 0 -d 1 -p poisson -e 210 -c 0 -i 2 -a 0 -x {0.0 1.0 2 ------- null}
+ -t 0 -s 0 -d 1 -p poisson -e 210 -c 0 -i 3 -a 0 -x {0.0 1.0 3 ------- null}
+ -t 0 -s 0 -d 1 -p poisson -e 210 -c 0 -i 4 -a 0 -x {0.0 1.0 4 ------- null}
+ -t 0 -s 0 -d 1 -p poisson -e 210 -c 0 -i 5 -a 0 -x {0.0 1.0 5 ------- null}
d -t 0 -s 0 -d 1 -p poisson -e 210 -c 0 -i 5 -a 0 -x {0.0 1.0 5 ------- null}
+ -t 0 -s 0 -d 1 -p poisson -e 210 -c 0 -i 6 -a 0 -x {0.0 1.0 6 ------- null}
d -t 0 -s 0 -d 1 -p poisson -e 210 -c 0 -i 6 -a 0 -x {0.0 1.0 6 ------- null}
+ -t 0 -s 0 -d 1 -p poisson -e 30 -c 0 -i 7 -a 0 -x {0.0 1.0 7 ------- null}
d -t 0 -s 0 -d 1 -p poisson -e 30 -c 0 -i 7 -a 0 -x {0.0 1.0 7 ------- null}
- -t 0.00168 -s 0 -d 1 -p poisson -e 210 -c 0 -i 1 -a 0 -x {0.0 1.0 1 ------- null}
h -t 0.00168 -s 0 -d 1 -p poisson -e 210 -c 0 -i 1 -a 0 -x {0.0 1.0 -1 ------- null}
- -t 0.00336 -s 0 -d 1 -p poisson -e 210 -c 0 -i 2 -a 0 -x {0.0 1.0 2 ------- null}
h -t 0.00336 -s 0 -d 1 -p poisson -e 210 -c 0 -i 2 -a 0 -x {0.0 1.0 -1 ------- null}
- -t 0.00504 -s 0 -d 1 -p poisson -e 210 -c 0 -i 3 -a 0 -x {0.0 1.0 3 ------- null}
h -t 0.00504 -s 0 -d 1 -p poisson -e 210 -c 0 -i 3 -a 0 -x {0.0 1.0 -1 ------- null}
- -t 0.00672 -s 0 -d 1 -p poisson -e 210 -c 0 -i 4 -a 0 -x {0.0 1.0 4 ------- null}
h -t 0.00672 -s 0 -d 1 -p poisson -e 210 -c 0 -i 4 -a 0 -x {0.0 1.0 -1 ------- null}
r -t 0.01168 -s 0 -d 1 -p poisson -e 210 -c 0 -i 0 -a 0 -x {0.0 1.0 0 ------- null}
r -t 0.01336 -s 0 -d 1 -p poisson -e 210 -c 0 -i 1 -a 0 -x {0.0 1.0 1 ------- null}
r -t 0.01504 -s 0 -d 1 -p poisson -e 210 -c 0 -i 2 -a 0 -x {0.0 1.0 2 ------- null}
r -t 0.01672 -s 0 -d 1 -p poisson -e 210 -c 0 -i 3 -a 0 -x {0.0 1.0 3 ------- null}
r -t 0.0184 -s 0 -d 1 -p poisson -e 210 -c 0 -i 4 -a 0 -x {0.0 1.0 4 ------- null}
+ -t 0.100898642192096 -s 0 -d 1 -p poisson -e 210 -c 0 -i 8 -a 0 -x {0.0 1.0 8 ------- null}
- -t 0.100898642192096 -s 0 -d 1 -p poisson -e 210 -c 0 -i 8 -a 0 -x {0.0 1.0 8 ------- null}
h -t 0.100898642192096 -s 0 -d 1 -p poisson -e 210 -c 0 -i 8 -a 0 -x {0.0 1.0 -1 ------- null}
+ -t 0.100898642192096 -s 0 -d 1 -p poisson -e 210 -c 0 -i 9 -a 0 -x {0.0 1.0 9 ------- null}
+ -t 0.100898642192096 -s 0 -d 1 -p poisson -e 210 -c 0 -i 10 -a 0 -x {0.0 1.0 10 ------- null}
+ -t 0.100898642192096 -s 0 -d 1 -p poisson -e 210 -c 0 -i 11 -a 0 -x {0.0 1.0 11 ------- null}
+ -t 0.100898642192096 -s 0 -d 1 -p poisson -e 210 -c 0 -i 12 -a 0 -x {0.0 1.0 12 ------- null}
+ -t 0.100898642192096 -s 0 -d 1 -p poisson -e 210 -c 0 -i 13 -a 0 -x {0.0 1.0 13 ------- null}
d -t 0.100898642192096 -s 0 -d 1 -p poisson -e 210 -c 0 -i 13 -a 0 -x {0.0 1.0 13 ------- null}
+ -t 0.100898642192096 -s 0 -d 1 -p poisson -e 210 -c 0 -i 14 -a 0 -x {0.0 1.0 14 ------- null}
d -t 0.100898642192096 -s 0 -d 1 -p poisson -e 210 -c 0 -i 14 -a 0 -x {0.0 1.0 14 ------- null}
+ -t 0.100898642192096 -s 0 -d 1 -p poisson -e 30 -c 0 -i 15 -a 0 -x {0.0 1.0 15 ------- null}
d -t 0.100898642192096 -s 0 -d 1 -p poisson -e 30 -c 0 -i 15 -a 0 -x {0.0 1.0 15 ------- null}
- -t 0.102578642192096 -s 0 -d 1 -p poisson -e 210 -c 0 -i 9 -a 0 -x {0.0 1.0 9 ------- null}
h -t 0.102578642192096 -s 0 -d 1 -p poisson -e 210 -c 0 -i 9 -a 0 -x {0.0 1.0 -1 ------- null}
- -t 0.104258642192096 -s 0 -d 1 -p poisson -e 210 -c 0 -i 10 -a 0 -x {0.0 1.0 10 ------- null}
h -t 0.104258642192096 -s 0 -d 1 -p poisson -e 210 -c 0 -i 10 -a 0 -x {0.0 1.0 -1 ------- null}
- -t 0.105938642192096 -s 0 -d 1 -p poisson -e 210 -c 0 -i 11 -a 0 -x {0.0 1.0 11 ------- null}
h -t 0.105938642192096 -s 0 -d 1 -p poisson -e 210 -c 0 -i 11 -a 0 -x {0.0 1.0 -1 ------- null}
- -t 0.107618642192096 -s 0 -d 1 -p poisson -e 210 -c 0 -i 12 -a 0 -x {0.0 1.0 12 ------- null}
h -t 0.107618642192096 -s 0 -d 1 -p poisson -e 210 -c 0 -i 12 -a 0 -x {0.0 1.0 -1 ------- null}
+ -t 0.108315924895436 -s 0 -d 1 -p poisson -e 210 -c 0 -i 16 -a 0 -x {0.0 1.0 16 ------- null}
+ -t 0.108315924895436 -s 0 -d 1 -p poisson -e 210 -c 0 -i 17 -a 0 -x {0.0 1.0 17 ------- null}
+ -t 0.108315924895436 -s 0 -d 1 -p poisson -e 210 -c 0 -i 18 -a 0 -x {0.0 1.0 18 ------- null}
+ -t 0.108315924895436 -s 0 -d 1 -p poisson -e 210 -c 0 -i 19 -a 0 -x {0.0 1.0 19 ------- null}
+ -t 0.108315924895436 -s 0 -d 1 -p poisson -e 210 -c 0 -i 20 -a 0 -x {0.0 1.0 20 ------- null}
d -t 0.108315924895436 -s 0 -d 1 -p poisson -e 210 -c 0 -i 20 -a 0 -x {0.0 1.0 20 ------- null}
+ -t 0.108315924895436 -s 0 -d 1 -p poisson -e 210 -c 0 -i 21 -a 0 -x {0.0 1.0 21 ------- null}
d -t 0.108315924895436 -s 0 -d 1 -p poisson -e 210 -c 0 -i 21 -a 0 -x {0.0 1.0 21 ------- null}
+ -t 0.108315924895436 -s 0 -d 1 -p poisson -e 210 -c 0 -i 22 -a 0 -x {0.0 1.0 22 ------- null}
d -t 0.108315924895436 -s 0 -d 1 -p poisson -e 210 -c 0 -i 22 -a 0 -x {0.0 1.0 22 ------- null}
+ -t 0.108315924895436 -s 0 -d 1 -p poisson -e 30 -c 0 -i 23 -a 0 -x {0.0 1.0 23 ------- null}
d -t 0.108315924895436 -s 0 -d 1 -p poisson -e 30 -c 0 -i 23 -a 0 -x {0.0 1.0 23 ------- null}
- -t 0.109298642192096 -s 0 -d 1 -p poisson -e 210 -c 0 -i 16 -a 0 -x {0.0 1.0 16 ------- null}
h -t 0.109298642192096 -s 0 -d 1 -p poisson -e 210 -c 0 -i 16 -a 0 -x {0.0 1.0 -1 ------- null}
- -t 0.110978642192096 -s 0 -d 1 -p poisson -e 210 -c 0 -i 17 -a 0 -x {0.0 1.0 17 ------- null}
h -t 0.110978642192096 -s 0 -d 1 -p poisson -e 210 -c 0 -i 17 -a 0 -x {0.0 1.0 -1 ------- null}
r -t 0.112578642192096 -s 0 -d 1 -p poisson -e 210 -c 0 -i 8 -a 0 -x {0.0 1.0 8 ------- null}
- -t 0.112658642192096 -s 0 -d 1 -p poisson -e 210 -c 0 -i 18 -a 0 -x {0.0 1.0 18 ------- null}
h -t 0.112658642192096 -s 0 -d 1 -p poisson -e 210 -c 0 -i 18 -a 0 -x {0.0 1.0 -1 ------- null}
r -t 0.114258642192096 -s 0 -d 1 -p poisson -e 210 -c 0 -i 9 -a 0 -x {0.0 1.0 9 ------- null}
- -t 0.114338642192096 -s 0 -d 1 -p poisson -e 210 -c 0 -i 19 -a 0 -x {0.0 1.0 19 ------- null}
h -t 0.114338642192096 -s 0 -d 1 -p poisson -e 210 -c 0 -i 19 -a 0 -x {0.0 1.0 -1 ------- null}
r -t 0.115938642192096 -s 0 -d 1 -p poisson -e 210 -c 0 -i 10 -a 0 -x {0.0 1.0 10 ------- null}
r -t 0.117618642192096 -s 0 -d 1 -p poisson -e 210 -c 0 -i 11 -a 0 -x {0.0 1.0 11 ------- null}
r -t 0.119298642192096 -s 0 -d 1 -p poisson -e 210 -c 0 -i 12 -a 0 -x {0.0 1.0 12 ------- null}
r -t 0.120978642192096 -s 0 -d 1 -p poisson -e 210 -c 0 -i 16 -a 0 -x {0.0 1.0 16 ------- null}
r -t 0.122658642192096 -s 0 -d 1 -p poisson -e 210 -c 0 -i 17 -a 0 -x {0.0 1.0 17 ------- null}
r -t 0.124338642192096 -s 0 -d 1 -p poisson -e 210 -c 0 -i 18 -a 0 -x {0.0 1.0 18 ------- null}
r -t 0.126018642192096 -s 0 -d 1 -p poisson -e 210 -c 0 -i 19 -a 0 -x {0.0 1.0 19 ------- null}
+ -t 0.162053000515304 -s 0 -d 1 -p poisson -e 210 -c 0 -i 24 -a 0 -x {0.0 1.0 24 ------- null}
- -t 0.162053000515304 -s 0 -d 1 -p poisson -e 210 -c 0 -i 24 -a 0 -x {0.0 1.0 24 ------- null}
h -t 0.162053000515304 -s 0 -d 1 -p poisson -e 210 -c 0 -i 24 -a 0 -x {0.0 1.0 -1 ------- null}
+ -t 0.162053000515304 -s 0 -d 1 -p poisson -e 210 -c 0 -i 25 -a 0 -x {0.0 1.0 25 ------- null}
+ -t 0.162053000515304 -s 0 -d 1 -p poisson -e 210 -c 0 -i 26 -a 0 -x {0.0 1.0 26 ------- null}
+ -t 0.162053000515304 -s 0 -d 1 -p poisson -e 210 -c 0 -i 27 -a 0 -x {0.0 1.0 27 ------- null}
+ -t 0.162053000515304 -s 0 -d 1 -p poisson -e 210 -c 0 -i 28 -a 0 -x {0.0 1.0 28 ------- null}
+ -t 0.162053000515304 -s 0 -d 1 -p poisson -e 210 -c 0 -i 29 -a 0 -x {0.0 1.0 29 ------- null}
d -t 0.162053000515304 -s 0 -d 1 -p poisson -e 210 -c 0 -i 29 -a 0 -x {0.0 1.0 29 ------- null}
+ -t 0.162053000515304 -s 0 -d 1 -p poisson -e 210 -c 0 -i 30 -a 0 -x {0.0 1.0 30 ------- null}
d -t 0.162053000515304 -s 0 -d 1 -p poisson -e 210 -c 0 -i 30 -a 0 -x {0.0 1.0 30 ------- null}
+ -t 0.162053000515304 -s 0 -d 1 -p poisson -e 30 -c 0 -i 31 -a 0 -x {0.0 1.0 31 ------- null}
d -t 0.162053000515304 -s 0 -d 1 -p poisson -e 30 -c 0 -i 31 -a 0 -x {0.0 1.0 31 ------- null}
- -t 0.163733000515304 -s 0 -d 1 -p poisson -e 210 -c 0 -i 25 -a 0 -x {0.0 1.0 25 ------- null}
h -t 0.163733000515304 -s 0 -d 1 -p poisson -e 210 -c 0 -i 25 -a 0 -x {0.0 1.0 -1 ------- null}
- -t 0.165413000515304 -s 0 -d 1 -p poisson -e 210 -c 0 -i 26 -a 0 -x {0.0 1.0 26 ------- null}
h -t 0.165413000515304 -s 0 -d 1 -p poisson -e 210 -c 0 -i 26 -a 0 -x {0.0 1.0 -1 ------- null}
- -t 0.167093000515304 -s 0 -d 1 -p poisson -e 210 -c 0 -i 27 -a 0 -x {0.0 1.0 27 ------- null}
h -t 0.167093000515304 -s 0 -d 1 -p poisson -e 210 -c 0 -i 27 -a 0 -x {0.0 1.0 -1 ------- null}
- -t 0.168773000515304 -s 0 -d 1 -p poisson -e 210 -c 0 -i 28 -a 0 -x {0.0 1.0 28 ------- null}
h -t 0.168773000515304 -s 0 -d 1 -p poisson -e 210 -c 0 -i 28 -a 0 -x {0.0 1.0 -1 ------- null}
r -t 0.173733000515304 -s 0 -d 1 -p poisson -e 210 -c 0 -i 24 -a 0 -x {0.0 1.0 24 ------- null}
r -t 0.175413000515304 -s 0 -d 1 -p poisson -e 210 -c 0 -i 25 -a 0 -x {0.0 1.0 25 ------- null}
r -t 0.177093000515304 -s 0 -d 1 -p poisson -e 210 -c 0 -i 26 -a 0 -x {0.0 1.0 26 ------- null}
r -t 0.178773000515304 -s 0 -d 1 -p poisson -e 210 -c 0 -i 27 -a 0 -x {0.0 1.0 27 ------- null}
r -t 0.180453000515304 -s 0 -d 1 -p poisson -e 210 -c 0 -i 28 -a 0 -x {0.0 1.0 28 ------- null}
+ -t 0.192735427163791 -s 0 -d 1 -p poisson -e 210 -c 0 -i 32 -a 0 -x {0.0 1.0 32 ------- null}
- -t 0.192735427163791 -s 0 -d 1 -p poisson -e 210 -c 0 -i 32 -a 0 -x {0.0 1.0 32 ------- null}
h -t 0.192735427163791 -s 0 -d 1 -p poisson -e 210 -c 0 -i 32 -a 0 -x {0.0 1.0 -1 ------- null}
+ -t 0.192735427163791 -s 0 -d 1 -p poisson -e 210 -c 0 -i 33 -a 0 -x {0.0 1.0 33 ------- null}
+ -t 0.192735427163791 -s 0 -d 1 -p poisson -e 210 -c 0 -i 34 -a 0 -x {0.0 1.0 34 ------- null}
+ -t 0.192735427163791 -s 0 -d 1 -p poisson -e 210 -c 0 -i 35 -a 0 -x {0.0 1.0 35 ------- null}
+ -t 0.192735427163791 -s 0 -d 1 -p poisson -e 210 -c 0 -i 36 -a 0 -x {0.0 1.0 36 ------- null}
+ -t 0.192735427163791 -s 0 -d 1 -p poisson -e 210 -c 0 -i 37 -a 0 -x {0.0 1.0 37 ------- null}
d -t 0.192735427163791 -s 0 -d 1 -p poisson -e 210 -c 0 -i 37 -a 0 -x {0.0 1.0 37 ------- null}
+ -t 0.192735427163791 -s 0 -d 1 -p poisson -e 210 -c 0 -i 38 -a 0 -x {0.0 1.0 38 ------- null}
d -t 0.192735427163791 -s 0 -d 1 -p poisson -e 210 -c 0 -i 38 -a 0 -x {0.0 1.0 38 ------- null}
+ -t 0.192735427163791 -s 0 -d 1 -p poisson -e 30 -c 0 -i 39 -a 0 -x {0.0 1.0 39 ------- null}
d -t 0.192735427163791 -s 0 -d 1 -p poisson -e 30 -c 0 -i 39 -a 0 -x {0.0 1.0 39 ------- null}
- -t 0.194415427163791 -s 0 -d 1 -p poisson -e 210 -c 0 -i 33 -a 0 -x {0.0 1.0 33 ------- null}
h -t 0.194415427163791 -s 0 -d 1 -p poisson -e 210 -c 0 -i 33 -a 0 -x {0.0 1.0 -1 ------- null}
- -t 0.196095427163791 -s 0 -d 1 -p poisson -e 210 -c 0 -i 34 -a 0 -x {0.0 1.0 34 ------- null}
h -t 0.196095427163791 -s 0 -d 1 -p poisson -e 210 -c 0 -i 34 -a 0 -x {0.0 1.0 -1 ------- null}
- -t 0.197775427163791 -s 0 -d 1 -p poisson -e 210 -c 0 -i 35 -a 0 -x {0.0 1.0 35 ------- null}
h -t 0.197775427163791 -s 0 -d 1 -p poisson -e 210 -c 0 -i 35 -a 0 -x {0.0 1.0 -1 ------- null}
- -t 0.199455427163791 -s 0 -d 1 -p poisson -e 210 -c 0 -i 36 -a 0 -x {0.0 1.0 36 ------- null}
h -t 0.199455427163791 -s 0 -d 1 -p poisson -e 210 -c 0 -i 36 -a 0 -x {0.0 1.0 -1 ------- null}
+ -t 0.203072067048782 -s 0 -d 1 -p poisson -e 210 -c 0 -i 40 -a 0 -x {0.0 1.0 40 ------- null}
- -t 0.203072067048782 -s 0 -d 1 -p poisson -e 210 -c 0 -i 40 -a 0 -x {0.0 1.0 40 ------- null}
h -t 0.203072067048782 -s 0 -d 1 -p poisson -e 210 -c 0 -i 40 -a 0 -x {0.0 1.0 -1 ------- null}
+ -t 0.203072067048782 -s 0 -d 1 -p poisson -e 210 -c 0 -i 41 -a 0 -x {0.0 1.0 41 ------- null}
+ -t 0.203072067048782 -s 0 -d 1 -p poisson -e 210 -c 0 -i 42 -a 0 -x {0.0 1.0 42 ------- null}
+ -t 0.203072067048782 -s 0 -d 1 -p poisson -e 210 -c 0 -i 43 -a 0 -x {0.0 1.0 43 ------- null}
+ -t 0.203072067048782 -s 0 -d 1 -p poisson -e 210 -c 0 -i 44 -a 0 -x {0.0 1.0 44 ------- null}
+ -t 0.203072067048782 -s 0 -d 1 -p poisson -e 210 -c 0 -i 45 -a 0 -x {0.0 1.0 45 ------- null}
d -t 0.203072067048782 -s 0 -d 1 -p poisson -e 210 -c 0 -i 45 -a 0 -x {0.0 1.0 45 ------- null}
+ -t 0.203072067048782 -s 0 -d 1 -p poisson -e 210 -c 0 -i 46 -a 0 -x {0.0 1.0 46 ------- null}
d -t 0.203072067048782 -s 0 -d 1 -p poisson -e 210 -c 0 -i 46 -a 0 -x {0.0 1.0 46 ------- null}
+ -t 0.203072067048782 -s 0 -d 1 -p poisson -e 30 -c 0 -i 47 -a 0 -x {0.0 1.0 47 ------- null}
d -t 0.203072067048782 -s 0 -d 1 -p poisson -e 30 -c 0 -i 47 -a 0 -x {0.0 1.0 47 ------- null}
r -t 0.204415427163791 -s 0 -d 1 -p poisson -e 210 -c 0 -i 32 -a 0 -x {0.0 1.0 32 ------- null}
- -t 0.204752067048782 -s 0 -d 1 -p poisson -e 210 -c 0 -i 41 -a 0 -x {0.0 1.0 41 ------- null}
h -t 0.204752067048782 -s 0 -d 1 -p poisson -e 210 -c 0 -i 41 -a 0 -x {0.0 1.0 -1 ------- null}
+ -t 0.205904064422157 -s 0 -d 1 -p poisson -e 210 -c 0 -i 48 -a 0 -x {0.0 1.0 48 ------- null}
+ -t 0.205904064422157 -s 0 -d 1 -p poisson -e 210 -c 0 -i 49 -a 0 -x {0.0 1.0 49 ------- null}
d -t 0.205904064422157 -s 0 -d 1 -p poisson -e 210 -c 0 -i 49 -a 0 -x {0.0 1.0 49 ------- null}
+ -t 0.205904064422157 -s 0 -d 1 -p poisson -e 210 -c 0 -i 50 -a 0 -x {0.0 1.0 50 ------- null}
d -t 0.205904064422157 -s 0 -d 1 -p poisson -e 210 -c 0 -i 50 -a 0 -x {0.0 1.0 50 ------- null}
+ -t 0.205904064422157 -s 0 -d 1 -p poisson -e 210 -c 0 -i 51 -a 0 -x {0.0 1.0 51 ------- null}
d -t 0.205904064422157 -s 0 -d 1 -p poisson -e 210 -c 0 -i 51 -a 0 -x {0.0 1.0 51 ------- null}
+ -t 0.205904064422157 -s 0 -d 1 -p poisson -e 210 -c 0 -i 52 -a 0 -x {0.0 1.0 52 ------- null}
d -t 0.205904064422157 -s 0 -d 1 -p poisson -e 210 -c 0 -i 52 -a 0 -x {0.0 1.0 52 ------- null}
+ -t 0.205904064422157 -s 0 -d 1 -p poisson -e 210 -c 0 -i 53 -a 0 -x {0.0 1.0 53 ------- null}
d -t 0.205904064422157 -s 0 -d 1 -p poisson -e 210 -c 0 -i 53 -a 0 -x {0.0 1.0 53 ------- null}
+ -t 0.205904064422157 -s 0 -d 1 -p poisson -e 210 -c 0 -i 54 -a 0 -x {0.0 1.0 54 ------- null}
d -t 0.205904064422157 -s 0 -d 1 -p poisson -e 210 -c 0 -i 54 -a 0 -x {0.0 1.0 54 ------- null}
+ -t 0.205904064422157 -s 0 -d 1 -p poisson -e 30 -c 0 -i 55 -a 0 -x {0.0 1.0 55 ------- null}
d -t 0.205904064422157 -s 0 -d 1 -p poisson -e 30 -c 0 -i 55 -a 0 -x {0.0 1.0 55 ------- null}
r -t 0.206095427163791 -s 0 -d 1 -p poisson -e 210 -c 0 -i 33 -a 0 -x {0.0 1.0 33 ------- null}
- -t 0.206432067048782 -s 0 -d 1 -p poisson -e 210 -c 0 -i 42 -a 0 -x {0.0 1.0 42 ------- null}
h -t 0.206432067048782 -s 0 -d 1 -p poisson -e 210 -c 0 -i 42 -a 0 -x {0.0 1.0 -1 ------- null}
r -t 0.207775427163791 -s 0 -d 1 -p poisson -e 210 -c 0 -i 34 -a 0 -x {0.0 1.0 34 ------- null}
- -t 0.208112067048782 -s 0 -d 1 -p poisson -e 210 -c 0 -i 43 -a 0 -x {0.0 1.0 43 ------- null}
h -t 0.208112067048782 -s 0 -d 1 -p poisson -e 210 -c 0 -i 43 -a 0 -x {0.0 1.0 -1 ------- null}
r -t 0.209455427163791 -s 0 -d 1 -p poisson -e 210 -c 0 -i 35 -a 0 -x {0.0 1.0 35 ------- null}
- -t 0.209792067048782 -s 0 -d 1 -p poisson -e 210 -c 0 -i 44 -a 0 -x {0.0 1.0 44 ------- null}
h -t 0.209792067048782 -s 0 -d 1 -p poisson -e 210 -c 0 -i 44 -a 0 -x {0.0 1.0 -1 ------- null}
r -t 0.211135427163791 -s 0 -d 1 -p poisson -e 210 -c 0 -i 36 -a 0 -x {0.0 1.0 36 ------- null}
- -t 0.211472067048782 -s 0 -d 1 -p poisson -e 210 -c 0 -i 48 -a 0 -x {0.0 1.0 48 ------- null}
h -t 0.211472067048782 -s 0 -d 1 -p poisson -e 210 -c 0 -i 48 -a 0 -x {0.0 1.0 -1 ------- null}
r -t 0.214752067048782 -s 0 -d 1 -p poisson -e 210 -c 0 -i 40 -a 0 -x {0.0 1.0 40 ------- null}
r -t 0.216432067048782 -s 0 -d 1 -p poisson -e 210 -c 0 -i 41 -a 0 -x {0.0 1.0 41 ------- null}
r -t 0.218112067048782 -s 0 -d 1 -p poisson -e 210 -c 0 -i 42 -a 0 -x {0.0 1.0 42 ------- null}
r -t 0.219792067048782 -s 0 -d 1 -p poisson -e 210 -c 0 -i 43 -a 0 -x {0.0 1.0 43 ------- null}
+ -t 0.220577844185107 -s 0 -d 1 -p poisson -e 210 -c 0 -i 56 -a 0 -x {0.0 1.0 56 ------- null}
- -t 0.220577844185107 -s 0 -d 1 -p poisson -e 210 -c 0 -i 56 -a 0 -x {0.0 1.0 56 ------- null}
h -t 0.220577844185107 -s 0 -d 1 -p poisson -e 210 -c 0 -i 56 -a 0 -x {0.0 1.0 -1 ------- null}
+ -t 0.220577844185107 -s 0 -d 1 -p poisson -e 210 -c 0 -i 57 -a 0 -x {0.0 1.0 57 ------- null}
+ -t 0.220577844185107 -s 0 -d 1 -p poisson -e 210 -c 0 -i 58 -a 0 -x {0.0 1.0 58 ------- null}
+ -t 0.220577844185107 -s 0 -d 1 -p poisson -e 210 -c 0 -i 59 -a 0 -x {0.0 1.0 59 ------- null}
+ -t 0.220577844185107 -s 0 -d 1 -p poisson -e 210 -c 0 -i 60 -a 0 -x {0.0 1.0 60 ------- null}
+ -t 0.220577844185107 -s 0 -d 1 -p poisson -e 210 -c 0 -i 61 -a 0 -x {0.0 1.0 61 ------- null}
d -t 0.220577844185107 -s 0 -d 1 -p poisson -e 210 -c 0 -i 61 -a 0 -x {0.0 1.0 61 ------- null}
+ -t 0.220577844185107 -s 0 -d 1 -p poisson -e 210 -c 0 -i 62 -a 0 -x {0.0 1.0 62 ------- null}
d -t 0.220577844185107 -s 0 -d 1 -p poisson -e 210 -c 0 -i 62 -a 0 -x {0.0 1.0 62 ------- null}
+ -t 0.220577844185107 -s 0 -d 1 -p poisson -e 30 -c 0 -i 63 -a 0 -x {0.0 1.0 63 ------- null}
d -t 0.220577844185107 -s 0 -d 1 -p poisson -e 30 -c 0 -i 63 -a 0 -x {0.0 1.0 63 ------- null}
r -t 0.221472067048782 -s 0 -d 1 -p poisson -e 210 -c 0 -i 44 -a 0 -x {0.0 1.0 44 ------- null}
- -t 0.222257844185107 -s 0 -d 1 -p poisson -e 210 -c 0 -i 57 -a 0 -x {0.0 1.0 57 ------- null}
h -t 0.222257844185107 -s 0 -d 1 -p poisson -e 210 -c 0 -i 57 -a 0 -x {0.0 1.0 -1 ------- null}
+ -t 0.223138994051756 -s 0 -d 1 -p poisson -e 210 -c 0 -i 64 -a 0 -x {0.0 1.0 64 ------- null}
+ -t 0.223138994051756 -s 0 -d 1 -p poisson -e 210 -c 0 -i 65 -a 0 -x {0.0 1.0 65 ------- null}
d -t 0.223138994051756 -s 0 -d 1 -p poisson -e 210 -c 0 -i 65 -a 0 -x {0.0 1.0 65 ------- null}
+ -t 0.223138994051756 -s 0 -d 1 -p poisson -e 210 -c 0 -i 66 -a 0 -x {0.0 1.0 66 ------- null}
d -t 0.223138994051756 -s 0 -d 1 -p poisson -e 210 -c 0 -i 66 -a 0 -x {0.0 1.0 66 ------- null}
+ -t 0.223138994051756 -s 0 -d 1 -p poisson -e 210 -c 0 -i 67 -a 0 -x {0.0 1.0 67 ------- null}
d -t 0.223138994051756 -s 0 -d 1 -p poisson -e 210 -c 0 -i 67 -a 0 -x {0.0 1.0 67 ------- null}
+ -t 0.223138994051756 -s 0 -d 1 -p poisson -e 210 -c 0 -i 68 -a 0 -x {0.0 1.0 68 ------- null}
d -t 0.223138994051756 -s 0 -d 1 -p poisson -e 210 -c 0 -i 68 -a 0 -x {0.0 1.0 68 ------- null}
+ -t 0.223138994051756 -s 0 -d 1 -p poisson -e 210 -c 0 -i 69 -a 0 -x {0.0 1.0 69 ------- null}
d -t 0.223138994051756 -s 0 -d 1 -p poisson -e 210 -c 0 -i 69 -a 0 -x {0.0 1.0 69 ------- null}
+ -t 0.223138994051756 -s 0 -d 1 -p poisson -e 210 -c 0 -i 70 -a 0 -x {0.0 1.0 70 ------- null}
d -t 0.223138994051756 -s 0 -d 1 -p poisson -e 210 -c 0 -i 70 -a 0 -x {0.0 1.0 70 ------- null}
+ -t 0.223138994051756 -s 0 -d 1 -p poisson -e 30 -c 0 -i 71 -a 0 -x {0.0 1.0 71 ------- null}
d -t 0.223138994051756 -s 0 -d 1 -p poisson -e 30 -c 0 -i 71 -a 0 -x {0.0 1.0 71 ------- null}
r -t 0.223152067048782 -s 0 -d 1 -p poisson -e 210 -c 0 -i 48 -a 0 -x {0.0 1.0 48 ------- null}
- -t 0.223937844185107 -s 0 -d 1 -p poisson -e 210 -c 0 -i 58 -a 0 -x {0.0 1.0 58 ------- null}
h -t 0.223937844185107 -s 0 -d 1 -p poisson -e 210 -c 0 -i 58 -a 0 -x {0.0 1.0 -1 ------- null}
- -t 0.225617844185107 -s 0 -d 1 -p poisson -e 210 -c 0 -i 59 -a 0 -x {0.0 1.0 59 ------- null}
h -t 0.225617844185107 -s 0 -d 1 -p poisson -e 210 -c 0 -i 59 -a 0 -x {0.0 1.0 -1 ------- null}
- -t 0.227297844185107 -s 0 -d 1 -p poisson -e 210 -c 0 -i 60 -a 0 -x {0.0 1.0 60 ------- null}
h -t 0.227297844185107 -s 0 -d 1 -p poisson -e 210 -c 0 -i 60 -a 0 -x {0.0 1.0 -1 ------- null}
- -t 0.228977844185107 -s 0 -d 1 -p poisson -e 210 -c 0 -i 64 -a 0 -x {0.0 1.0 64 ------- null}
h -t 0.228977844185107 -s 0 -d 1 -p poisson -e 210 -c 0 -i 64 -a 0 -x {0.0 1.0 -1 ------- null}
r -t 0.232257844185107 -s 0 -d 1 -p poisson -e 210 -c 0 -i 56 -a 0 -x {0.0 1.0 56 ------- null}
r -t 0.233937844185107 -s 0 -d 1 -p poisson -e 210 -c 0 -i 57 -a 0 -x {0.0 1.0 57 ------- null}
r -t 0.235617844185107 -s 0 -d 1 -p poisson -e 210 -c 0 -i 58 -a 0 -x {0.0 1.0 58 ------- null}
r -t 0.237297844185107 -s 0 -d 1 -p poisson -e 210 -c 0 -i 59 -a 0 -x {0.0 1.0 59 ------- null}
r -t 0.238977844185107 -s 0 -d 1 -p poisson -e 210 -c 0 -i 60 -a 0 -x {0.0 1.0 60 ------- null}
r -t 0.240657844185107 -s 0 -d 1 -p poisson -e 210 -c 0 -i 64 -a 0 -x {0.0 1.0 64 ------- null}
+ -t 0.241453089319744 -s 0 -d 1 -p poisson -e 210 -c 0 -i 72 -a 0 -x {0.0 1.0 72 ------- null}
- -t 0.241453089319744 -s 0 -d 1 -p poisson -e 210 -c 0 -i 72 -a 0 -x {0.0 1.0 72 ------- null}
h -t 0.241453089319744 -s 0 -d 1 -p poisson -e 210 -c 0 -i 72 -a 0 -x {0.0 1.0 -1 ------- null}
+ -t 0.241453089319744 -s 0 -d 1 -p poisson -e 210 -c 0 -i 73 -a 0 -x {0.0 1.0 73 ------- null}
+ -t 0.241453089319744 -s 0 -d 1 -p poisson -e 210 -c 0 -i 74 -a 0 -x {0.0 1.0 74 ------- null}
+ -t 0.241453089319744 -s 0 -d 1 -p poisson -e 210 -c 0 -i 75 -a 0 -x {0.0 1.0 75 ------- null}
+ -t 0.241453089319744 -s 0 -d 1 -p poisson -e 210 -c 0 -i 76 -a 0 -x {0.0 1.0 76 ------- null}
+ -t 0.241453089319744 -s 0 -d 1 -p poisson -e 210 -c 0 -i 77 -a 0 -x {0.0 1.0 77 ------- null}
d -t 0.241453089319744 -s 0 -d 1 -p poisson -e 210 -c 0 -i 77 -a 0 -x {0.0 1.0 77 ------- null}
+ -t 0.241453089319744 -s 0 -d 1 -p poisson -e 210 -c 0 -i 78 -a 0 -x {0.0 1.0 78 ------- null}
d -t 0.241453089319744 -s 0 -d 1 -p poisson -e 210 -c 0 -i 78 -a 0 -x {0.0 1.0 78 ------- null}
+ -t 0.241453089319744 -s 0 -d 1 -p poisson -e 30 -c 0 -i 79 -a 0 -x {0.0 1.0 79 ------- null}
d -t 0.241453089319744 -s 0 -d 1 -p poisson -e 30 -c 0 -i 79 -a 0 -x {0.0 1.0 79 ------- null}
- -t 0.243133089319744 -s 0 -d 1 -p poisson -e 210 -c 0 -i 73 -a 0 -x {0.0 1.0 73 ------- null}
h -t 0.243133089319744 -s 0 -d 1 -p poisson -e 210 -c 0 -i 73 -a 0 -x {0.0 1.0 -1 ------- null}
- -t 0.244813089319744 -s 0 -d 1 -p poisson -e 210 -c 0 -i 74 -a 0 -x {0.0 1.0 74 ------- null}
h -t 0.244813089319744 -s 0 -d 1 -p poisson -e 210 -c 0 -i 74 -a 0 -x {0.0 1.0 -1 ------- null}
- -t 0.246493089319744 -s 0 -d 1 -p poisson -e 210 -c 0 -i 75 -a 0 -x {0.0 1.0 75 ------- null}
h -t 0.246493089319744 -s 0 -d 1 -p poisson -e 210 -c 0 -i 75 -a 0 -x {0.0 1.0 -1 ------- null}
+ -t 0.247112818460108 -s 0 -d 1 -p poisson -e 210 -c 0 -i 80 -a 0 -x {0.0 1.0 80 ------- null}
+ -t 0.247112818460108 -s 0 -d 1 -p poisson -e 210 -c 0 -i 81 -a 0 -x {0.0 1.0 81 ------- null}
+ -t 0.247112818460108 -s 0 -d 1 -p poisson -e 210 -c 0 -i 82 -a 0 -x {0.0 1.0 82 ------- null}
+ -t 0.247112818460108 -s 0 -d 1 -p poisson -e 210 -c 0 -i 83 -a 0 -x {0.0 1.0 83 ------- null}
d -t 0.247112818460108 -s 0 -d 1 -p poisson -e 210 -c 0 -i 83 -a 0 -x {0.0 1.0 83 ------- null}
+ -t 0.247112818460108 -s 0 -d 1 -p poisson -e 210 -c 0 -i 84 -a 0 -x {0.0 1.0 84 ------- null}
d -t 0.247112818460108 -s 0 -d 1 -p poisson -e 210 -c 0 -i 84 -a 0 -x {0.0 1.0 84 ------- null}
+ -t 0.247112818460108 -s 0 -d 1 -p poisson -e 210 -c 0 -i 85 -a 0 -x {0.0 1.0 85 ------- null}
d -t 0.247112818460108 -s 0 -d 1 -p poisson -e 210 -c 0 -i 85 -a 0 -x {0.0 1.0 85 ------- null}
+ -t 0.247112818460108 -s 0 -d 1 -p poisson -e 210 -c 0 -i 86 -a 0 -x {0.0 1.0 86 ------- null}
d -t 0.247112818460108 -s 0 -d 1 -p poisson -e 210 -c 0 -i 86 -a 0 -x {0.0 1.0 86 ------- null}
+ -t 0.247112818460108 -s 0 -d 1 -p poisson -e 30 -c 0 -i 87 -a 0 -x {0.0 1.0 87 ------- null}
d -t 0.247112818460108 -s 0 -d 1 -p poisson -e 30 -c 0 -i 87 -a 0 -x {0.0 1.0 87 ------- null}
- -t 0.248173089319744 -s 0 -d 1 -p poisson -e 210 -c 0 -i 76 -a 0 -x {0.0 1.0 76 ------- null}
h -t 0.248173089319744 -s 0 -d 1 -p poisson -e 210 -c 0 -i 76 -a 0 -x {0.0 1.0 -1 ------- null}
- -t 0.249853089319744 -s 0 -d 1 -p poisson -e 210 -c 0 -i 80 -a 0 -x {0.0 1.0 80 ------- null}
h -t 0.249853089319744 -s 0 -d 1 -p poisson -e 210 -c 0 -i 80 -a 0 -x {0.0 1.0 -1 ------- null}
- -t 0.251533089319744 -s 0 -d 1 -p poisson -e 210 -c 0 -i 81 -a 0 -x {0.0 1.0 81 ------- null}
h -t 0.251533089319744 -s 0 -d 1 -p poisson -e 210 -c 0 -i 81 -a 0 -x {0.0 1.0 -1 ------- null}
r -t 0.253133089319744 -s 0 -d 1 -p poisson -e 210 -c 0 -i 72 -a 0 -x {0.0 1.0 72 ------- null}
- -t 0.253213089319744 -s 0 -d 1 -p poisson -e 210 -c 0 -i 82 -a 0 -x {0.0 1.0 82 ------- null}
h -t 0.253213089319744 -s 0 -d 1 -p poisson -e 210 -c 0 -i 82 -a 0 -x {0.0 1.0 -1 ------- null}
r -t 0.254813089319744 -s 0 -d 1 -p poisson -e 210 -c 0 -i 73 -a 0 -x {0.0 1.0 73 ------- null}
r -t 0.256493089319744 -s 0 -d 1 -p poisson -e 210 -c 0 -i 74 -a 0 -x {0.0 1.0 74 ------- null}
r -t 0.258173089319744 -s 0 -d 1 -p poisson -e 210 -c 0 -i 75 -a 0 -x {0.0 1.0 75 ------- null}
r -t 0.259853089319744 -s 0 -d 1 -p poisson -e 210 -c 0 -i 76 -a 0 -x {0.0 1.0 76 ------- null}
r -t 0.261533089319744 -s 0 -d 1 -p poisson -e 210 -c 0 -i 80 -a 0 -x {0.0 1.0 80 ------- null}
+ -t 0.261944290260571 -s 0 -d 1 -p poisson -e 210 -c 0 -i 88 -a 0 -x {0.0 1.0 88 ------- null}
- -t 0.261944290260571 -s 0 -d 1 -p poisson -e 210 -c 0 -i 88 -a 0 -x {0.0 1.0 88 ------- null}
h -t 0.261944290260571 -s 0 -d 1 -p poisson -e 210 -c 0 -i 88 -a 0 -x {0.0 1.0 -1 ------- null}
+ -t 0.261944290260571 -s 0 -d 1 -p poisson -e 210 -c 0 -i 89 -a 0 -x {0.0 1.0 89 ------- null}
+ -t 0.261944290260571 -s 0 -d 1 -p poisson -e 210 -c 0 -i 90 -a 0 -x {0.0 1.0 90 ------- null}
+ -t 0.261944290260571 -s 0 -d 1 -p poisson -e 210 -c 0 -i 91 -a 0 -x {0.0 1.0 91 ------- null}
+ -t 0.261944290260571 -s 0 -d 1 -p poisson -e 210 -c 0 -i 92 -a 0 -x {0.0 1.0 92 ------- null}
+ -t 0.261944290260571 -s 0 -d 1 -p poisson -e 210 -c 0 -i 93 -a 0 -x {0.0 1.0 93 ------- null}
d -t 0.261944290260571 -s 0 -d 1 -p poisson -e 210 -c 0 -i 93 -a 0 -x {0.0 1.0 93 ------- null}
+ -t 0.261944290260571 -s 0 -d 1 -p poisson -e 210 -c 0 -i 94 -a 0 -x {0.0 1.0 94 ------- null}
d -t 0.261944290260571 -s 0 -d 1 -p poisson -e 210 -c 0 -i 94 -a 0 -x {0.0 1.0 94 ------- null}
+ -t 0.261944290260571 -s 0 -d 1 -p poisson -e 30 -c 0 -i 95 -a 0 -x {0.0 1.0 95 ------- null}
d -t 0.261944290260571 -s 0 -d 1 -p poisson -e 30 -c 0 -i 95 -a 0 -x {0.0 1.0 95 ------- null}
r -t 0.263213089319744 -s 0 -d 1 -p poisson -e 210 -c 0 -i 81 -a 0 -x {0.0 1.0 81 ------- null}
- -t 0.263624290260571 -s 0 -d 1 -p poisson -e 210 -c 0 -i 89 -a 0 -x {0.0 1.0 89 ------- null}
h -t 0.263624290260571 -s 0 -d 1 -p poisson -e 210 -c 0 -i 89 -a 0 -x {0.0 1.0 -1 ------- null}
+ -t 0.264202055332705 -s 0 -d 1 -p poisson -e 210 -c 0 -i 96 -a 0 -x {0.0 1.0 96 ------- null}
+ -t 0.264202055332705 -s 0 -d 1 -p poisson -e 210 -c 0 -i 97 -a 0 -x {0.0 1.0 97 ------- null}
d -t 0.264202055332705 -s 0 -d 1 -p poisson -e 210 -c 0 -i 97 -a 0 -x {0.0 1.0 97 ------- null}
+ -t 0.264202055332705 -s 0 -d 1 -p poisson -e 210 -c 0 -i 98 -a 0 -x {0.0 1.0 98 ------- null}
d -t 0.264202055332705 -s 0 -d 1 -p poisson -e 210 -c 0 -i 98 -a 0 -x {0.0 1.0 98 ------- null}
+ -t 0.264202055332705 -s 0 -d 1 -p poisson -e 210 -c 0 -i 99 -a 0 -x {0.0 1.0 99 ------- null}
d -t 0.264202055332705 -s 0 -d 1 -p poisson -e 210 -c 0 -i 99 -a 0 -x {0.0 1.0 99 ------- null}
+ -t 0.264202055332705 -s 0 -d 1 -p poisson -e 210 -c 0 -i 100 -a 0 -x {0.0 1.0 100 ------- null}
d -t 0.264202055332705 -s 0 -d 1 -p poisson -e 210 -c 0 -i 100 -a 0 -x {0.0 1.0 100 ------- null}
+ -t 0.264202055332705 -s 0 -d 1 -p poisson -e 210 -c 0 -i 101 -a 0 -x {0.0 1.0 101 ------- null}
d -t 0.264202055332705 -s 0 -d 1 -p poisson -e 210 -c 0 -i 101 -a 0 -x {0.0 1.0 101 ------- null}
+ -t 0.264202055332705 -s 0 -d 1 -p poisson -e 210 -c 0 -i 102 -a 0 -x {0.0 1.0 102 ------- null}
d -t 0.264202055332705 -s 0 -d 1 -p poisson -e 210 -c 0 -i 102 -a 0 -x {0.0 1.0 102 ------- null}
+ -t 0.264202055332705 -s 0 -d 1 -p poisson -e 30 -c 0 -i 103 -a 0 -x {0.0 1.0 103 ------- null}
d -t 0.264202055332705 -s 0 -d 1 -p poisson -e 30 -c 0 -i 103 -a 0 -x {0.0 1.0 103 ------- null}
r -t 0.264893089319744 -s 0 -d 1 -p poisson -e 210 -c 0 -i 82 -a 0 -x {0.0 1.0 82 ------- null}
- -t 0.265304290260571 -s 0 -d 1 -p poisson -e 210 -c 0 -i 90 -a 0 -x {0.0 1.0 90 ------- null}
h -t 0.265304290260571 -s 0 -d 1 -p poisson -e 210 -c 0 -i 90 -a 0 -x {0.0 1.0 -1 ------- null}
- -t 0.266984290260571 -s 0 -d 1 -p poisson -e 210 -c 0 -i 91 -a 0 -x {0.0 1.0 91 ------- null}
h -t 0.266984290260571 -s 0 -d 1 -p poisson -e 210 -c 0 -i 91 -a 0 -x {0.0 1.0 -1 ------- null}
- -t 0.268664290260571 -s 0 -d 1 -p poisson -e 210 -c 0 -i 92 -a 0 -x {0.0 1.0 92 ------- null}
h -t 0.268664290260571 -s 0 -d 1 -p poisson -e 210 -c 0 -i 92 -a 0 -x {0.0 1.0 -1 ------- null}
- -t 0.270344290260571 -s 0 -d 1 -p poisson -e 210 -c 0 -i 96 -a 0 -x {0.0 1.0 96 ------- null}
h -t 0.270344290260571 -s 0 -d 1 -p poisson -e 210 -c 0 -i 96 -a 0 -x {0.0 1.0 -1 ------- null}
r -t 0.273624290260571 -s 0 -d 1 -p poisson -e 210 -c 0 -i 88 -a 0 -x {0.0 1.0 88 ------- null}
r -t 0.275304290260571 -s 0 -d 1 -p poisson -e 210 -c 0 -i 89 -a 0 -x {0.0 1.0 89 ------- null}
r -t 0.276984290260571 -s 0 -d 1 -p poisson -e 210 -c 0 -i 90 -a 0 -x {0.0 1.0 90 ------- null}
r -t 0.278664290260571 -s 0 -d 1 -p poisson -e 210 -c 0 -i 91 -a 0 -x {0.0 1.0 91 ------- null}
r -t 0.280344290260571 -s 0 -d 1 -p poisson -e 210 -c 0 -i 92 -a 0 -x {0.0 1.0 92 ------- null}
r -t 0.282024290260571 -s 0 -d 1 -p poisson -e 210 -c 0 -i 96 -a 0 -x {0.0 1.0 96 ------- null}
+ -t 0.287027351564609 -s 0 -d 1 -p poisson -e 210 -c 0 -i 104 -a 0 -x {0.0 1.0 104 ------- null}
- -t 0.287027351564609 -s 0 -d 1 -p poisson -e 210 -c 0 -i 104 -a 0 -x {0.0 1.0 104 ------- null}
h -t 0.287027351564609 -s 0 -d 1 -p poisson -e 210 -c 0 -i 104 -a 0 -x {0.0 1.0 -1 ------- null}
+ -t 0.287027351564609 -s 0 -d 1 -p poisson -e 210 -c 0 -i 105 -a 0 -x {0.0 1.0 105 ------- null}
+ -t 0.287027351564609 -s 0 -d 1 -p poisson -e 210 -c 0 -i 106 -a 0 -x {0.0 1.0 106 ------- null}
+ -t 0.287027351564609 -s 0 -d 1 -p poisson -e 210 -c 0 -i 107 -a 0 -x {0.0 1.0 107 ------- null}