+ 0 0 1 poisson 210 ------- 0 0.0 1.0 0 0
- 0 0 1 poisson 210 ------- 0 0.0 1.0 0 0
+ 0 0 1 poisson 210 ------- 0 0.0 1.0 1 1
+ 0 0 1 poisson 210 ------- 0 0.0 1.0 2 2
+ 0 0 1 poisson 210 ------- 0 0.0 1.0 3 3
+ 0 0 1 poisson 210 ------- 0 0.0 1.0 4 4
+ 0 0 1 poisson 210 ------- 0 0.0 1.0 5 5
+ 0 0 1 poisson 210 ------- 0 0.0 1.0 6 6
+ 0 0 1 poisson 30 ------- 0 0.0 1.0 7 7
- 0.00168 0 1 poisson 210 ------- 0 0.0 1.0 1 1
- 0.00336 0 1 poisson 210 ------- 0 0.0 1.0 2 2
- 0.00504 0 1 poisson 210 ------- 0 0.0 1.0 3 3
- 0.00672 0 1 poisson 210 ------- 0 0.0 1.0 4 4
- 0.0084 0 1 poisson 210 ------- 0 0.0 1.0 5 5
- 0.01008 0 1 poisson 210 ------- 0 0.0 1.0 6 6
r 0.01168 0 1 poisson 210 ------- 0 0.0 1.0 0 0
- 0.01176 0 1 poisson 30 ------- 0 0.0 1.0 7 7
r 0.01336 0 1 poisson 210 ------- 0 0.0 1.0 1 1
r 0.01504 0 1 poisson 210 ------- 0 0.0 1.0 2 2
r 0.01672 0 1 poisson 210 ------- 0 0.0 1.0 3 3
r 0.0184 0 1 poisson 210 ------- 0 0.0 1.0 4 4
r 0.02008 0 1 poisson 210 ------- 0 0.0 1.0 5 5
r 0.02176 0 1 poisson 210 ------- 0 0.0 1.0 6 6
r 0.022 0 1 poisson 30 ------- 0 0.0 1.0 7 7
+ 0.100899 0 1 poisson 210 ------- 0 0.0 1.0 8 8
- 0.100899 0 1 poisson 210 ------- 0 0.0 1.0 8 8
+ 0.100899 0 1 poisson 210 ------- 0 0.0 1.0 9 9
+ 0.100899 0 1 poisson 210 ------- 0 0.0 1.0 10 10
+ 0.100899 0 1 poisson 210 ------- 0 0.0 1.0 11 11
+ 0.100899 0 1 poisson 210 ------- 0 0.0 1.0 12 12
+ 0.100899 0 1 poisson 210 ------- 0 0.0 1.0 13 13
+ 0.100899 0 1 poisson 210 ------- 0 0.0 1.0 14 14
+ 0.100899 0 1 poisson 30 ------- 0 0.0 1.0 15 15
- 0.102579 0 1 poisson 210 ------- 0 0.0 1.0 9 9
- 0.104259 0 1 poisson 210 ------- 0 0.0 1.0 10 10
- 0.105939 0 1 poisson 210 ------- 0 0.0 1.0 11 11
- 0.107619 0 1 poisson 210 ------- 0 0.0 1.0 12 12
+ 0.108316 0 1 poisson 210 ------- 0 0.0 1.0 16 16
+ 0.108316 0 1 poisson 210 ------- 0 0.0 1.0 17 17
+ 0.108316 0 1 poisson 210 ------- 0 0.0 1.0 18 18
+ 0.108316 0 1 poisson 210 ------- 0 0.0 1.0 19 19
+ 0.108316 0 1 poisson 210 ------- 0 0.0 1.0 20 20
+ 0.108316 0 1 poisson 210 ------- 0 0.0 1.0 21 21
+ 0.108316 0 1 poisson 210 ------- 0 0.0 1.0 22 22
+ 0.108316 0 1 poisson 30 ------- 0 0.0 1.0 23 23
- 0.109299 0 1 poisson 210 ------- 0 0.0 1.0 13 13
- 0.110979 0 1 poisson 210 ------- 0 0.0 1.0 14 14
r 0.112579 0 1 poisson 210 ------- 0 0.0 1.0 8 8
- 0.112659 0 1 poisson 30 ------- 0 0.0 1.0 15 15
- 0.112899 0 1 poisson 210 ------- 0 0.0 1.0 16 16
r 0.114259 0 1 poisson 210 ------- 0 0.0 1.0 9 9
- 0.114579 0 1 poisson 210 ------- 0 0.0 1.0 17 17
r 0.115939 0 1 poisson 210 ------- 0 0.0 1.0 10 10
- 0.116259 0 1 poisson 210 ------- 0 0.0 1.0 18 18
r 0.117619 0 1 poisson 210 ------- 0 0.0 1.0 11 11
- 0.117939 0 1 poisson 210 ------- 0 0.0 1.0 19 19
r 0.119299 0 1 poisson 210 ------- 0 0.0 1.0 12 12
- 0.119619 0 1 poisson 210 ------- 0 0.0 1.0 20 20
r 0.120979 0 1 poisson 210 ------- 0 0.0 1.0 13 13
- 0.121299 0 1 poisson 210 ------- 0 0.0 1.0 21 21
r 0.122659 0 1 poisson 210 ------- 0 0.0 1.0 14 14
r 0.122899 0 1 poisson 30 ------- 0 0.0 1.0 15 15
- 0.122979 0 1 poisson 210 ------- 0 0.0 1.0 22 22
r 0.124579 0 1 poisson 210 ------- 0 0.0 1.0 16 16
- 0.124659 0 1 poisson 30 ------- 0 0.0 1.0 23 23
r 0.126259 0 1 poisson 210 ------- 0 0.0 1.0 17 17
r 0.127939 0 1 poisson 210 ------- 0 0.0 1.0 18 18
r 0.129619 0 1 poisson 210 ------- 0 0.0 1.0 19 19
r 0.131299 0 1 poisson 210 ------- 0 0.0 1.0 20 20
r 0.132979 0 1 poisson 210 ------- 0 0.0 1.0 21 21
r 0.134659 0 1 poisson 210 ------- 0 0.0 1.0 22 22
r 0.134899 0 1 poisson 30 ------- 0 0.0 1.0 23 23
+ 0.162053 0 1 poisson 210 ------- 0 0.0 1.0 24 24
- 0.162053 0 1 poisson 210 ------- 0 0.0 1.0 24 24
+ 0.162053 0 1 poisson 210 ------- 0 0.0 1.0 25 25
+ 0.162053 0 1 poisson 210 ------- 0 0.0 1.0 26 26
+ 0.162053 0 1 poisson 210 ------- 0 0.0 1.0 27 27
+ 0.162053 0 1 poisson 210 ------- 0 0.0 1.0 28 28
+ 0.162053 0 1 poisson 210 ------- 0 0.0 1.0 29 29
+ 0.162053 0 1 poisson 210 ------- 0 0.0 1.0 30 30
+ 0.162053 0 1 poisson 30 ------- 0 0.0 1.0 31 31
- 0.163733 0 1 poisson 210 ------- 0 0.0 1.0 25 25
- 0.165413 0 1 poisson 210 ------- 0 0.0 1.0 26 26
- 0.167093 0 1 poisson 210 ------- 0 0.0 1.0 27 27
- 0.168773 0 1 poisson 210 ------- 0 0.0 1.0 28 28
- 0.170453 0 1 poisson 210 ------- 0 0.0 1.0 29 29
- 0.172133 0 1 poisson 210 ------- 0 0.0 1.0 30 30
r 0.173733 0 1 poisson 210 ------- 0 0.0 1.0 24 24
- 0.173813 0 1 poisson 30 ------- 0 0.0 1.0 31 31
r 0.175413 0 1 poisson 210 ------- 0 0.0 1.0 25 25
r 0.177093 0 1 poisson 210 ------- 0 0.0 1.0 26 26
r 0.178773 0 1 poisson 210 ------- 0 0.0 1.0 27 27
r 0.180453 0 1 poisson 210 ------- 0 0.0 1.0 28 28
r 0.182133 0 1 poisson 210 ------- 0 0.0 1.0 29 29
r 0.183813 0 1 poisson 210 ------- 0 0.0 1.0 30 30
r 0.184053 0 1 poisson 30 ------- 0 0.0 1.0 31 31
+ 0.192735 0 1 poisson 210 ------- 0 0.0 1.0 32 32
- 0.192735 0 1 poisson 210 ------- 0 0.0 1.0 32 32
+ 0.192735 0 1 poisson 210 ------- 0 0.0 1.0 33 33
+ 0.192735 0 1 poisson 210 ------- 0 0.0 1.0 34 34
+ 0.192735 0 1 poisson 210 ------- 0 0.0 1.0 35 35
+ 0.192735 0 1 poisson 210 ------- 0 0.0 1.0 36 36
+ 0.192735 0 1 poisson 210 ------- 0 0.0 1.0 37 37
+ 0.192735 0 1 poisson 210 ------- 0 0.0 1.0 38 38
+ 0.192735 0 1 poisson 30 ------- 0 0.0 1.0 39 39
- 0.194415 0 1 poisson 210 ------- 0 0.0 1.0 33 33
- 0.196095 0 1 poisson 210 ------- 0 0.0 1.0 34 34
- 0.197775 0 1 poisson 210 ------- 0 0.0 1.0 35 35
- 0.199455 0 1 poisson 210 ------- 0 0.0 1.0 36 36
- 0.201135 0 1 poisson 210 ------- 0 0.0 1.0 37 37
- 0.202815 0 1 poisson 210 ------- 0 0.0 1.0 38 38
+ 0.203072 0 1 poisson 210 ------- 0 0.0 1.0 40 40
+ 0.203072 0 1 poisson 210 ------- 0 0.0 1.0 41 41
+ 0.203072 0 1 poisson 210 ------- 0 0.0 1.0 42 42
+ 0.203072 0 1 poisson 210 ------- 0 0.0 1.0 43 43
+ 0.203072 0 1 poisson 210 ------- 0 0.0 1.0 44 44
+ 0.203072 0 1 poisson 210 ------- 0 0.0 1.0 45 45
+ 0.203072 0 1 poisson 210 ------- 0 0.0 1.0 46 46
+ 0.203072 0 1 poisson 30 ------- 0 0.0 1.0 47 47
r 0.204415 0 1 poisson 210 ------- 0 0.0 1.0 32 32
- 0.204495 0 1 poisson 30 ------- 0 0.0 1.0 39 39
- 0.204735 0 1 poisson 210 ------- 0 0.0 1.0 40 40
+ 0.205904 0 1 poisson 210 ------- 0 0.0 1.0 48 48
+ 0.205904 0 1 poisson 210 ------- 0 0.0 1.0 49 49
+ 0.205904 0 1 poisson 210 ------- 0 0.0 1.0 50 50
+ 0.205904 0 1 poisson 210 ------- 0 0.0 1.0 51 51
+ 0.205904 0 1 poisson 210 ------- 0 0.0 1.0 52 52
+ 0.205904 0 1 poisson 210 ------- 0 0.0 1.0 53 53
+ 0.205904 0 1 poisson 210 ------- 0 0.0 1.0 54 54
+ 0.205904 0 1 poisson 30 ------- 0 0.0 1.0 55 55
r 0.206095 0 1 poisson 210 ------- 0 0.0 1.0 33 33
- 0.206415 0 1 poisson 210 ------- 0 0.0 1.0 41 41
r 0.207775 0 1 poisson 210 ------- 0 0.0 1.0 34 34
- 0.208095 0 1 poisson 210 ------- 0 0.0 1.0 42 42
r 0.209455 0 1 poisson 210 ------- 0 0.0 1.0 35 35
- 0.209775 0 1 poisson 210 ------- 0 0.0 1.0 43 43
r 0.211135 0 1 poisson 210 ------- 0 0.0 1.0 36 36
- 0.211455 0 1 poisson 210 ------- 0 0.0 1.0 44 44
r 0.212815 0 1 poisson 210 ------- 0 0.0 1.0 37 37
- 0.213135 0 1 poisson 210 ------- 0 0.0 1.0 45 45
r 0.214495 0 1 poisson 210 ------- 0 0.0 1.0 38 38
r 0.214735 0 1 poisson 30 ------- 0 0.0 1.0 39 39
- 0.214815 0 1 poisson 210 ------- 0 0.0 1.0 46 46
r 0.216415 0 1 poisson 210 ------- 0 0.0 1.0 40 40
- 0.216495 0 1 poisson 30 ------- 0 0.0 1.0 47 47
- 0.216735 0 1 poisson 210 ------- 0 0.0 1.0 48 48
r 0.218095 0 1 poisson 210 ------- 0 0.0 1.0 41 41
- 0.218415 0 1 poisson 210 ------- 0 0.0 1.0 49 49
r 0.219775 0 1 poisson 210 ------- 0 0.0 1.0 42 42
- 0.220095 0 1 poisson 210 ------- 0 0.0 1.0 50 50
+ 0.220578 0 1 poisson 210 ------- 0 0.0 1.0 56 56
+ 0.220578 0 1 poisson 210 ------- 0 0.0 1.0 57 57
+ 0.220578 0 1 poisson 210 ------- 0 0.0 1.0 58 58
+ 0.220578 0 1 poisson 210 ------- 0 0.0 1.0 59 59
+ 0.220578 0 1 poisson 210 ------- 0 0.0 1.0 60 60
+ 0.220578 0 1 poisson 210 ------- 0 0.0 1.0 61 61
+ 0.220578 0 1 poisson 210 ------- 0 0.0 1.0 62 62
+ 0.220578 0 1 poisson 30 ------- 0 0.0 1.0 63 63
r 0.221455 0 1 poisson 210 ------- 0 0.0 1.0 43 43
- 0.221775 0 1 poisson 210 ------- 0 0.0 1.0 51 51
r 0.223135 0 1 poisson 210 ------- 0 0.0 1.0 44 44
+ 0.223139 0 1 poisson 210 ------- 0 0.0 1.0 64 64
+ 0.223139 0 1 poisson 210 ------- 0 0.0 1.0 65 65
+ 0.223139 0 1 poisson 210 ------- 0 0.0 1.0 66 66
+ 0.223139 0 1 poisson 210 ------- 0 0.0 1.0 67 67
+ 0.223139 0 1 poisson 210 ------- 0 0.0 1.0 68 68
+ 0.223139 0 1 poisson 210 ------- 0 0.0 1.0 69 69
+ 0.223139 0 1 poisson 210 ------- 0 0.0 1.0 70 70
+ 0.223139 0 1 poisson 30 ------- 0 0.0 1.0 71 71
- 0.223455 0 1 poisson 210 ------- 0 0.0 1.0 52 52
r 0.224815 0 1 poisson 210 ------- 0 0.0 1.0 45 45
- 0.225135 0 1 poisson 210 ------- 0 0.0 1.0 53 53
r 0.226495 0 1 poisson 210 ------- 0 0.0 1.0 46 46
r 0.226735 0 1 poisson 30 ------- 0 0.0 1.0 47 47
- 0.226815 0 1 poisson 210 ------- 0 0.0 1.0 54 54
r 0.228415 0 1 poisson 210 ------- 0 0.0 1.0 48 48
- 0.228495 0 1 poisson 30 ------- 0 0.0 1.0 55 55
- 0.228735 0 1 poisson 210 ------- 0 0.0 1.0 56 56
r 0.230095 0 1 poisson 210 ------- 0 0.0 1.0 49 49
- 0.230415 0 1 poisson 210 ------- 0 0.0 1.0 57 57
r 0.231775 0 1 poisson 210 ------- 0 0.0 1.0 50 50
- 0.232095 0 1 poisson 210 ------- 0 0.0 1.0 58 58
r 0.233455 0 1 poisson 210 ------- 0 0.0 1.0 51 51
- 0.233775 0 1 poisson 210 ------- 0 0.0 1.0 59 59
r 0.235135 0 1 poisson 210 ------- 0 0.0 1.0 52 52
- 0.235455 0 1 poisson 210 ------- 0 0.0 1.0 60 60
r 0.236815 0 1 poisson 210 ------- 0 0.0 1.0 53 53
- 0.237135 0 1 poisson 210 ------- 0 0.0 1.0 61 61
r 0.238495 0 1 poisson 210 ------- 0 0.0 1.0 54 54
r 0.238735 0 1 poisson 30 ------- 0 0.0 1.0 55 55
- 0.238815 0 1 poisson 210 ------- 0 0.0 1.0 62 62
r 0.240415 0 1 poisson 210 ------- 0 0.0 1.0 56 56
- 0.240495 0 1 poisson 30 ------- 0 0.0 1.0 63 63
- 0.240735 0 1 poisson 210 ------- 0 0.0 1.0 64 64
+ 0.241453 0 1 poisson 210 ------- 0 0.0 1.0 72 72
+ 0.241453 0 1 poisson 210 ------- 0 0.0 1.0 73 73
+ 0.241453 0 1 poisson 210 ------- 0 0.0 1.0 74 74
+ 0.241453 0 1 poisson 210 ------- 0 0.0 1.0 75 75
+ 0.241453 0 1 poisson 210 ------- 0 0.0 1.0 76 76
+ 0.241453 0 1 poisson 210 ------- 0 0.0 1.0 77 77
+ 0.241453 0 1 poisson 210 ------- 0 0.0 1.0 78 78
+ 0.241453 0 1 poisson 30 ------- 0 0.0 1.0 79 79
r 0.242095 0 1 poisson 210 ------- 0 0.0 1.0 57 57
- 0.242415 0 1 poisson 210 ------- 0 0.0 1.0 65 65
r 0.243775 0 1 poisson 210 ------- 0 0.0 1.0 58 58
- 0.244095 0 1 poisson 210 ------- 0 0.0 1.0 66 66
r 0.245455 0 1 poisson 210 ------- 0 0.0 1.0 59 59
- 0.245775 0 1 poisson 210 ------- 0 0.0 1.0 67 67
+ 0.247113 0 1 poisson 210 ------- 0 0.0 1.0 80 80
+ 0.247113 0 1 poisson 210 ------- 0 0.0 1.0 81 81
+ 0.247113 0 1 poisson 210 ------- 0 0.0 1.0 82 82
+ 0.247113 0 1 poisson 210 ------- 0 0.0 1.0 83 83
+ 0.247113 0 1 poisson 210 ------- 0 0.0 1.0 84 84
+ 0.247113 0 1 poisson 210 ------- 0 0.0 1.0 85 85
+ 0.247113 0 1 poisson 210 ------- 0 0.0 1.0 86 86
+ 0.247113 0 1 poisson 30 ------- 0 0.0 1.0 87 87
r 0.247135 0 1 poisson 210 ------- 0 0.0 1.0 60 60
- 0.247455 0 1 poisson 210 ------- 0 0.0 1.0 68 68
r 0.248815 0 1 poisson 210 ------- 0 0.0 1.0 61 61
- 0.249135 0 1 poisson 210 ------- 0 0.0 1.0 69 69
r 0.250495 0 1 poisson 210 ------- 0 0.0 1.0 62 62
r 0.250735 0 1 poisson 30 ------- 0 0.0 1.0 63 63
- 0.250815 0 1 poisson 210 ------- 0 0.0 1.0 70 70
r 0.252415 0 1 poisson 210 ------- 0 0.0 1.0 64 64
- 0.252495 0 1 poisson 30 ------- 0 0.0 1.0 71 71
- 0.252735 0 1 poisson 210 ------- 0 0.0 1.0 72 72
r 0.254095 0 1 poisson 210 ------- 0 0.0 1.0 65 65
- 0.254415 0 1 poisson 210 ------- 0 0.0 1.0 73 73
r 0.255775 0 1 poisson 210 ------- 0 0.0 1.0 66 66
- 0.256095 0 1 poisson 210 ------- 0 0.0 1.0 74 74
r 0.257455 0 1 poisson 210 ------- 0 0.0 1.0 67 67
- 0.257775 0 1 poisson 210 ------- 0 0.0 1.0 75 75
r 0.259135 0 1 poisson 210 ------- 0 0.0 1.0 68 68
- 0.259455 0 1 poisson 210 ------- 0 0.0 1.0 76 76
r 0.260815 0 1 poisson 210 ------- 0 0.0 1.0 69 69
- 0.261135 0 1 poisson 210 ------- 0 0.0 1.0 77 77
+ 0.261944 0 1 poisson 210 ------- 0 0.0 1.0 88 88
+ 0.261944 0 1 poisson 210 ------- 0 0.0 1.0 89 89
+ 0.261944 0 1 poisson 210 ------- 0 0.0 1.0 90 90
+ 0.261944 0 1 poisson 210 ------- 0 0.0 1.0 91 91
+ 0.261944 0 1 poisson 210 ------- 0 0.0 1.0 92 92
+ 0.261944 0 1 poisson 210 ------- 0 0.0 1.0 93 93
+ 0.261944 0 1 poisson 210 ------- 0 0.0 1.0 94 94
+ 0.261944 0 1 poisson 30 ------- 0 0.0 1.0 95 95
r 0.262495 0 1 poisson 210 ------- 0 0.0 1.0 70 70
r 0.262735 0 1 poisson 30 ------- 0 0.0 1.0 71 71
- 0.262815 0 1 poisson 210 ------- 0 0.0 1.0 78 78
+ 0.264202 0 1 poisson 210 ------- 0 0.0 1.0 96 96
+ 0.264202 0 1 poisson 210 ------- 0 0.0 1.0 97 97
+ 0.264202 0 1 poisson 210 ------- 0 0.0 1.0 98 98
+ 0.264202 0 1 poisson 210 ------- 0 0.0 1.0 99 99
+ 0.264202 0 1 poisson 210 ------- 0 0.0 1.0 100 100
+ 0.264202 0 1 poisson 210 ------- 0 0.0 1.0 101 101
+ 0.264202 0 1 poisson 210 ------- 0 0.0 1.0 102 102
+ 0.264202 0 1 poisson 30 ------- 0 0.0 1.0 103 103
r 0.264415 0 1 poisson 210 ------- 0 0.0 1.0 72 72
- 0.264495 0 1 poisson 30 ------- 0 0.0 1.0 79 79
- 0.264735 0 1 poisson 210 ------- 0 0.0 1.0 80 80
r 0.266095 0 1 poisson 210 ------- 0 0.0 1.0 73 73
- 0.266415 0 1 poisson 210 ------- 0 0.0 1.0 81 81
r 0.267775 0 1 poisson 210 ------- 0 0.0 1.0 74 74
- 0.268095 0 1 poisson 210 ------- 0 0.0 1.0 82 82
r 0.269455 0 1 poisson 210 ------- 0 0.0 1.0 75 75
- 0.269775 0 1 poisson 210 ------- 0 0.0 1.0 83 83
r 0.271135 0 1 poisson 210 ------- 0 0.0 1.0 76 76
- 0.271455 0 1 poisson 210 ------- 0 0.0 1.0 84 84
r 0.272815 0 1 poisson 210 ------- 0 0.0 1.0 77 77
- 0.273135 0 1 poisson 210 ------- 0 0.0 1.0 85 85
r 0.274495 0 1 poisson 210 ------- 0 0.0 1.0 78 78
r 0.274735 0 1 poisson 30 ------- 0 0.0 1.0 79 79
- 0.274815 0 1 poisson 210 ------- 0 0.0 1.0 86 86
r 0.276415 0 1 poisson 210 ------- 0 0.0 1.0 80 80
- 0.276495 0 1 poisson 30 ------- 0 0.0 1.0 87 87
- 0.276735 0 1 poisson 210 ------- 0 0.0 1.0 88 88
r 0.278095 0 1 poisson 210 ------- 0 0.0 1.0 81 81
- 0.278415 0 1 poisson 210 ------- 0 0.0 1.0 89 89
r 0.279775 0 1 poisson 210 ------- 0 0.0 1.0 82 82
- 0.280095 0 1 poisson 210 ------- 0 0.0 1.0 90 90
r 0.281455 0 1 poisson 210 ------- 0 0.0 1.0 83 83
- 0.281775 0 1 poisson 210 ------- 0 0.0 1.0 91 91
r 0.283135 0 1 poisson 210 ------- 0 0.0 1.0 84 84
- 0.283455 0 1 poisson 210 ------- 0 0.0 1.0 92 92
r 0.284815 0 1 poisson 210 ------- 0 0.0 1.0 85 85
- 0.285135 0 1 poisson 210 ------- 0 0.0 1.0 93 93
r 0.286495 0 1 poisson 210 ------- 0 0.0 1.0 86 86
r 0.286735 0 1 poisson 30 ------- 0 0.0 1.0 87 87
- 0.286815 0 1 poisson 210 ------- 0 0.0 1.0 94 94
+ 0.287027 0 1 poisson 210 ------- 0 0.0 1.0 104 104
+ 0.287027 0 1 poisson 210 ------- 0 0.0 1.0 105 105
+ 0.287027 0 1 poisson 210 ------- 0 0.0 1.0 106 106
+ 0.287027 0 1 poisson 210 ------- 0 0.0 1.0 107 107
+ 0.287027 0 1 poisson 210 ------- 0 0.0 1.0 108 108
+ 0.287027 0 1 poisson 210 ------- 0 0.0 1.0 109 109
+ 0.287027 0 1 poisson 210 ------- 0 0.0 1.0 110 110
+ 0.287027 0 1 poisson 30 ------- 0 0.0 1.0 111 111
r 0.288415 0 1 poisson 210 ------- 0 0.0 1.0 88 88
- 0.288495 0 1 poisson 30 ------- 0 0.0 1.0 95 95
- 0.288735 0 1 poisson 210 ------- 0 0.0 1.0 96 96
r 0.290095 0 1 poisson 210 ------- 0 0.0 1.0 89 89
- 0.290415 0 1 poisson 210 ------- 0 0.0 1.0 97 97
r 0.291775 0 1 poisson 210 ------- 0 0.0 1.0 90 90
- 0.292095 0 1 poisson 210 ------- 0 0.0 1.0 98 98
r 0.293455 0 1 poisson 210 ------- 0 0.0 1.0 91 91
- 0.293775 0 1 poisson 210 ------- 0 0.0 1.0 99 99
r 0.295135 0 1 poisson 210 ------- 0 0.0 1.0 92 92
- 0.295455 0 1 poisson 210 ------- 0 0.0 1.0 100 100
r 0.296815 0 1 poisson 210 ------- 0 0.0 1.0 93 93
- 0.297135 0 1 poisson 210 ------- 0 0.0 1.0 101 101
r 0.298495 0 1 poisson 210 ------- 0 0.0 1.0 94 94
r 0.298735 0 1 poisson 30 ------- 0 0.0 1.0 95 95
- 0.298815 0 1 poisson 210 ------- 0 0.0 1.0 102 102
r 0.300415 0 1 poisson 210 ------- 0 0.0 1.0 96 96
- 0.300495 0 1 poisson 30 ------- 0 0.0 1.0 103 103
- 0.300735 0 1 poisson 210 ------- 0 0.0 1.0 104 104
r 0.302095 0 1 poisson 210 ------- 0 0.0 1.0 97 97
- 0.302415 0 1 poisson 210 ------- 0 0.0 1.0 105 105
r 0.303775 0 1 poisson 210 ------- 0 0.0 1.0 98 98
- 0.304095 0 1 poisson 210 ------- 0 0.0 1.0 106 106
r 0.305455 0 1 poisson 210 ------- 0 0.0 1.0 99 99
- 0.305775 0 1 poisson 210 ------- 0 0.0 1.0 107 107
r 0.307135 0 1 poisson 210 ------- 0 0.0 1.0 100 100
- 0.307455 0 1 poisson 210 ------- 0 0.0 1.0 108 108
r 0.308815 0 1 poisson 210 ------- 0 0.0 1.0 101 101
- 0.309135 0 1 poisson 210 ------- 0 0.0 1.0 109 109
r 0.310495 0 1 poisson 210 ------- 0 0.0 1.0 102 102
r 0.310735 0 1 poisson 30 ------- 0 0.0 1.0 103 103
- 0.310815 0 1 poisson 210 ------- 0 0.0 1.0 110 110
r 0.312415 0 1 poisson 210 ------- 0 0.0 1.0 104 104
- 0.312495 0 1 poisson 30 ------- 0 0.0 1.0 111 111
r 0.314095 0 1 poisson 210 ------- 0 0.0 1.0 105 105
r 0.315775 0 1 poisson 210 ------- 0 0.0 1.0 106 106
r 0.317455 0 1 poisson 210 ------- 0 0.0 1.0 107 107
r 0.319135 0 1 poisson 210 ------- 0 0.0 1.0 108 108
r 0.320815 0 1 poisson 210 ------- 0 0.0 1.0 109 109
r 0.322495 0 1 poisson 210 ------- 0 0.0 1.0 110 110
r 0.322735 0 1 poisson 30 ------- 0 0.0 1.0 111 111
+ 0.326834 0 1 poisson 210 ------- 0 0.0 1.0 112 112
- 0.326834 0 1 poisson 210 ------- 0 0.0 1.0 112 112
+ 0.326834 0 1 poisson 210 ------- 0 0.0 1.0 113 113
+ 0.326834 0 1 poisson 210 ------- 0 0.0 1.0 114 114
+ 0.326834 0 1 poisson 210 ------- 0 0.0 1.0 115 115
+ 0.326834 0 1 poisson 210 ------- 0 0.0 1.0 116 116
+ 0.326834 0 1 poisson 210 ------- 0 0.0 1.0 117 117
+ 0.326834 0 1 poisson 210 ------- 0 0.0 1.0 118 118
+ 0.326834 0 1 poisson 30 ------- 0 0.0 1.0 119 119
- 0.328514 0 1 poisson 210 ------- 0 0.0 1.0 113 113
- 0.330194 0 1 poisson 210 ------- 0 0.0 1.0 114 114
- 0.331874 0 1 poisson 210 ------- 0 0.0 1.0 115 115
+ 0.33247 0 1 poisson 210 ------- 0 0.0 1.0 120 120
+ 0.33247 0 1 poisson 210 ------- 0 0.0 1.0 121 121
+ 0.33247 0 1 poisson 210 ------- 0 0.0 1.0 122 122
+ 0.33247 0 1 poisson 210 ------- 0 0.0 1.0 123 123
+ 0.33247 0 1 poisson 210 ------- 0 0.0 1.0 124 124
+ 0.33247 0 1 poisson 210 ------- 0 0.0 1.0 125 125
+ 0.33247 0 1 poisson 210 ------- 0 0.0 1.0 126 126
+ 0.33247 0 1 poisson 30 ------- 0 0.0 1.0 127 127
- 0.333554 0 1 poisson 210 ------- 0 0.0 1.0 116 116
- 0.335234 0 1 poisson 210 ------- 0 0.0 1.0 117 117
- 0.336914 0 1 poisson 210 ------- 0 0.0 1.0 118 118
r 0.338514 0 1 poisson 210 ------- 0 0.0 1.0 112 112
- 0.338594 0 1 poisson 30 ------- 0 0.0 1.0 119 119
- 0.338834 0 1 poisson 210 ------- 0 0.0 1.0 120 120
r 0.340194 0 1 poisson 210 ------- 0 0.0 1.0 113 113
- 0.340514 0 1 poisson 210 ------- 0 0.0 1.0 121 121
r 0.341874 0 1 poisson 210 ------- 0 0.0 1.0 114 114
- 0.342194 0 1 poisson 210 ------- 0 0.0 1.0 122 122
r 0.343554 0 1 poisson 210 ------- 0 0.0 1.0 115 115
- 0.343874 0 1 poisson 210 ------- 0 0.0 1.0 123 123
r 0.345234 0 1 poisson 210 ------- 0 0.0 1.0 116 116
- 0.345554 0 1 poisson 210 ------- 0 0.0 1.0 124 124
r 0.346914 0 1 poisson 210 ------- 0 0.0 1.0 117 117
- 0.347234 0 1 poisson 210 ------- 0 0.0 1.0 125 125
r 0.348594 0 1 poisson 210 ------- 0 0.0 1.0 118 118
r 0.348834 0 1 poisson 30 ------- 0 0.0 1.0 119 119
- 0.348914 0 1 poisson 210 ------- 0 0.0 1.0 126 126
r 0.350514 0 1 poisson 210 ------- 0 0.0 1.0 120 120
- 0.350594 0 1 poisson 30 ------- 0 0.0 1.0 127 127
r 0.352194 0 1 poisson 210 ------- 0 0.0 1.0 121 121
r 0.353874 0 1 poisson 210 ------- 0 0.0 1.0 122 122
r 0.355554 0 1 poisson 210 ------- 0 0.0 1.0 123 123
r 0.357234 0 1 poisson 210 ------- 0 0.0 1.0 124 124
r 0.358914 0 1 poisson 210 ------- 0 0.0 1.0 125 125
+ 0.359921 0 1 poisson 210 ------- 0 0.0 1.0 128 128
- 0.359921 0 1 poisson 210 ------- 0 0.0 1.0 128 128
+ 0.359921 0 1 poisson 210 ------- 0 0.0 1.0 129 129
+ 0.359921 0 1 poisson 210 ------- 0 0.0 1.0 130 130
+ 0.359921 0 1 poisson 210 ------- 0 0.0 1.0 131 131
+ 0.359921 0 1 poisson 210 ------- 0 0.0 1.0 132 132
+ 0.359921 0 1 poisson 210 ------- 0 0.0 1.0 133 133
+ 0.359921 0 1 poisson 210 ------- 0 0.0 1.0 134 134
+ 0.359921 0 1 poisson 30 ------- 0 0.0 1.0 135 135
r 0.360594 0 1 poisson 210 ------- 0 0.0 1.0 126 126
r 0.360834 0 1 poisson 30 ------- 0 0.0 1.0 127 127
- 0.361601 0 1 poisson 210 ------- 0 0.0 1.0 129 129
+ 0.36183 0 1 poisson 210 ------- 0 0.0 1.0 136 136
+ 0.36183 0 1 poisson 210 ------- 0 0.0 1.0 137 137
+ 0.36183 0 1 poisson 210 ------- 0 0.0 1.0 138 138
+ 0.36183 0 1 poisson 210 ------- 0 0.0 1.0 139 139
+ 0.36183 0 1 poisson 210 ------- 0 0.0 1.0 140 140
+ 0.36183 0 1 poisson 210 ------- 0 0.0 1.0 141 141
+ 0.36183 0 1 poisson 210 ------- 0 0.0 1.0 142 142
+ 0.36183 0 1 poisson 30 ------- 0 0.0 1.0 143 143
- 0.363281 0 1 poisson 210 ------- 0 0.0 1.0 130 130
- 0.364961 0 1 poisson 210 ------- 0 0.0 1.0 131 131
- 0.366641 0 1 poisson 210 ------- 0 0.0 1.0 132 132
- 0.368321 0 1 poisson 210 ------- 0 0.0 1.0 133 133
- 0.370001 0 1 poisson 210 ------- 0 0.0 1.0 134 134
r 0.371601 0 1 poisson 210 ------- 0 0.0 1.0 128 128
- 0.371681 0 1 poisson 30 ------- 0 0.0 1.0 135 135
- 0.371921 0 1 poisson 210 ------- 0 0.0 1.0 136 136
+ 0.372679 0 1 poisson 210 ------- 0 0.0 1.0 144 144
+ 0.372679 0 1 poisson 210 ------- 0 0.0 1.0 145 145
+ 0.372679 0 1 poisson 210 ------- 0 0.0 1.0 146 146
+ 0.372679 0 1 poisson 210 ------- 0 0.0 1.0 147 147
+ 0.372679 0 1 poisson 210 ------- 0 0.0 1.0 148 148
+ 0.372679 0 1 poisson 210 ------- 0 0.0 1.0 149 149
+ 0.372679 0 1 poisson 210 ------- 0 0.0 1.0 150 150
+ 0.372679 0 1 poisson 30 ------- 0 0.0 1.0 151 151
r 0.373281 0 1 poisson 210 ------- 0 0.0 1.0 129 129
- 0.373601 0 1 poisson 210 ------- 0 0.0 1.0 137 137
r 0.374961 0 1 poisson 210 ------- 0 0.0 1.0 130 130
- 0.375281 0 1 poisson 210 ------- 0 0.0 1.0 138 138
r 0.376641 0 1 poisson 210 ------- 0 0.0 1.0 131 131
- 0.376961 0 1 poisson 210 ------- 0 0.0 1.0 139 139
r 0.378321 0 1 poisson 210 ------- 0 0.0 1.0 132 132
- 0.378641 0 1 poisson 210 ------- 0 0.0 1.0 140 140
r 0.380001 0 1 poisson 210 ------- 0 0.0 1.0 133 133
- 0.380321 0 1 poisson 210 ------- 0 0.0 1.0 141 141
r 0.381681 0 1 poisson 210 ------- 0 0.0 1.0 134 134
r 0.381921 0 1 poisson 30 ------- 0 0.0 1.0 135 135
- 0.382001 0 1 poisson 210 ------- 0 0.0 1.0 142 142
r 0.383601 0 1 poisson 210 ------- 0 0.0 1.0 136 136
- 0.383681 0 1 poisson 30 ------- 0 0.0 1.0 143 143
- 0.383921 0 1 poisson 210 ------- 0 0.0 1.0 144 144
r 0.385281 0 1 poisson 210 ------- 0 0.0 1.0 137 137
- 0.385601 0 1 poisson 210 ------- 0 0.0 1.0 145 145
r 0.386961 0 1 poisson 210 ------- 0 0.0 1.0 138 138
- 0.387281 0 1 poisson 210 ------- 0 0.0 1.0 146 146
r 0.388641 0 1 poisson 210 ------- 0 0.0 1.0 139 139
- 0.388961 0 1 poisson 210 ------- 0 0.0 1.0 147 147
r 0.390321 0 1 poisson 210 ------- 0 0.0 1.0 140 140
- 0.390641 0 1 poisson 210 ------- 0 0.0 1.0 148 148
r 0.392001 0 1 poisson 210 ------- 0 0.0 1.0 141 141
- 0.392321 0 1 poisson 210 ------- 0 0.0 1.0 149 149
r 0.393681 0 1 poisson 210 ------- 0 0.0 1.0 142 142
r 0.393921 0 1 poisson 30 ------- 0 0.0 1.0 143 143
- 0.394001 0 1 poisson 210 ------- 0 0.0 1.0 150 150
+ 0.394709 0 1 poisson 210 ------- 0 0.0 1.0 152 152
+ 0.394709 0 1 poisson 210 ------- 0 0.0 1.0 153 153
+ 0.394709 0 1 poisson 210 ------- 0 0.0 1.0 154 154
+ 0.394709 0 1 poisson 210 ------- 0 0.0 1.0 155 155
+ 0.394709 0 1 poisson 210 ------- 0 0.0 1.0 156 156
+ 0.394709 0 1 poisson 210 ------- 0 0.0 1.0 157 157
+ 0.394709 0 1 poisson 210 ------- 0 0.0 1.0 158 158
+ 0.394709 0 1 poisson 30 ------- 0 0.0 1.0 159 159
r 0.395601 0 1 poisson 210 ------- 0 0.0 1.0 144 144
- 0.395681 0 1 poisson 30 ------- 0 0.0 1.0 151 151
- 0.395921 0 1 poisson 210 ------- 0 0.0 1.0 152 152
r 0.397281 0 1 poisson 210 ------- 0 0.0 1.0 145 145
- 0.397601 0 1 poisson 210 ------- 0 0.0 1.0 153 153
r 0.398961 0 1 poisson 210 ------- 0 0.0 1.0 146 146
- 0.399281 0 1 poisson 210 ------- 0 0.0 1.0 154 154
r 0.400641 0 1 poisson 210 ------- 0 0.0 1.0 147 147
- 0.400961 0 1 poisson 210 ------- 0 0.0 1.0 155 155
r 0.402321 0 1 poisson 210 ------- 0 0.0 1.0 148 148
- 0.402641 0 1 poisson 210 ------- 0 0.0 1.0 156 156
r 0.404001 0 1 poisson 210 ------- 0 0.0 1.0 149 149
- 0.404321 0 1 poisson 210 ------- 0 0.0 1.0 157 157
r 0.405681 0 1 poisson 210 ------- 0 0.0 1.0 150 150
r 0.405921 0 1 poisson 30 ------- 0 0.0 1.0 151 151
- 0.406001 0 1 poisson 210 ------- 0 0.0 1.0 158 158
r 0.407601 0 1 poisson 210 ------- 0 0.0 1.0 152 152
- 0.407681 0 1 poisson 30 ------- 0 0.0 1.0 159 159
r 0.409281 0 1 poisson 210 ------- 0 0.0 1.0 153 153
r 0.410961 0 1 poisson 210 ------- 0 0.0 1.0 154 154
r 0.412641 0 1 poisson 210 ------- 0 0.0 1.0 155 155
r 0.414321 0 1 poisson 210 ------- 0 0.0 1.0 156 156
r 0.416001 0 1 poisson 210 ------- 0 0.0 1.0 157 157
r 0.417681 0 1 poisson 210 ------- 0 0.0 1.0 158 158
r 0.417921 0 1 poisson 30 ------- 0 0.0 1.0 159 159
+ 0.424558 0 1 poisson 210 ------- 0 0.0 1.0 160 160
- 0.424558 0 1 poisson 210 ------- 0 0.0 1.0 160 160
+ 0.424558 0 1 poisson 210 ------- 0 0.0 1.0 161 161
+ 0.424558 0 1 poisson 210 ------- 0 0.0 1.0 162 162
+ 0.424558 0 1 poisson 210 ------- 0 0.0 1.0 163 163
+ 0.424558 0 1 poisson 210 ------- 0 0.0 1.0 164 164
+ 0.424558 0 1 poisson 210 ------- 0 0.0 1.0 165 165
+ 0.424558 0 1 poisson 210 ------- 0 0.0 1.0 166 166
+ 0.424558 0 1 poisson 30 ------- 0 0.0 1.0 167 167
- 0.426238 0 1 poisson 210 ------- 0 0.0 1.0 161 161
+ 0.427266 0 1 poisson 210 ------- 0 0.0 1.0 168 168
+ 0.427266 0 1 poisson 210 ------- 0 0.0 1.0 169 169
+ 0.427266 0 1 poisson 210 ------- 0 0.0 1.0 170 170
+ 0.427266 0 1 poisson 210 ------- 0 0.0 1.0 171 171
+ 0.427266 0 1 poisson 210 ------- 0 0.0 1.0 172 172
+ 0.427266 0 1 poisson 210 ------- 0 0.0 1.0 173 173
+ 0.427266 0 1 poisson 210 ------- 0 0.0 1.0 174 174
+ 0.427266 0 1 poisson 30 ------- 0 0.0 1.0 175 175
- 0.427918 0 1 poisson 210 ------- 0 0.0 1.0 162 162
- 0.429598 0 1 poisson 210 ------- 0 0.0 1.0 163 163
- 0.431278 0 1 poisson 210 ------- 0 0.0 1.0 164 164
- 0.432958 0 1 poisson 210 ------- 0 0.0 1.0 165 165
- 0.434638 0 1 poisson 210 ------- 0 0.0 1.0 166 166
r 0.436238 0 1 poisson 210 ------- 0 0.0 1.0 160 160
- 0.436318 0 1 poisson 30 ------- 0 0.0 1.0 167 167
- 0.436558 0 1 poisson 210 ------- 0 0.0 1.0 168 168
r 0.437918 0 1 poisson 210 ------- 0 0.0 1.0 161 161
- 0.438238 0 1 poisson 210 ------- 0 0.0 1.0 169 169
r 0.439598 0 1 poisson 210 ------- 0 0.0 1.0 162 162
- 0.439918 0 1 poisson 210 ------- 0 0.0 1.0 170 170
+ 0.440572 0 1 poisson 210 ------- 0 0.0 1.0 176 176
+ 0.440572 0 1 poisson 210 ------- 0 0.0 1.0 177 177
+ 0.440572 0 1 poisson 210 ------- 0 0.0 1.0 178 178
+ 0.440572 0 1 poisson 210 ------- 0 0.0 1.0 179 179
+ 0.440572 0 1 poisson 210 ------- 0 0.0 1.0 180 180
+ 0.440572 0 1 poisson 210 ------- 0 0.0 1.0 181 181
+ 0.440572 0 1 poisson 210 ------- 0 0.0 1.0 182 182
+ 0.440572 0 1 poisson 30 ------- 0 0.0 1.0 183 183
r 0.441278 0 1 poisson 210 ------- 0 0.0 1.0 163 163
- 0.441598 0 1 poisson 210 ------- 0 0.0 1.0 171 171
r 0.442958 0 1 poisson 210 ------- 0 0.0 1.0 164 164
- 0.443278 0 1 poisson 210 ------- 0 0.0 1.0 172 172
r 0.444638 0 1 poisson 210 ------- 0 0.0 1.0 165 165
- 0.444958 0 1 poisson 210 ------- 0 0.0 1.0 173 173
r 0.446318 0 1 poisson 210 ------- 0 0.0 1.0 166 166
r 0.446558 0 1 poisson 30 ------- 0 0.0 1.0 167 167
- 0.446638 0 1 poisson 210 ------- 0 0.0 1.0 174 174
r 0.448238 0 1 poisson 210 ------- 0 0.0 1.0 168 168
- 0.448318 0 1 poisson 30 ------- 0 0.0 1.0 175 175
- 0.448558 0 1 poisson 210 ------- 0 0.0 1.0 176 176
r 0.449918 0 1 poisson 210 ------- 0 0.0 1.0 169 169
- 0.450238 0 1 poisson 210 ------- 0 0.0 1.0 177 177
r 0.451598 0 1 poisson 210 ------- 0 0.0 1.0 170 170
- 0.451918 0 1 poisson 210 ------- 0 0.0 1.0 178 178
r 0.453278 0 1 poisson 210 ------- 0 0.0 1.0 171 171
- 0.453598 0 1 poisson 210 ------- 0 0.0 1.0 179 179
r 0.454958 0 1 poisson 210 ------- 0 0.0 1.0 172 172
- 0.455278 0 1 poisson 210 ------- 0 0.0 1.0 180 180
r 0.456638 0 1 poisson 210 ------- 0 0.0 1.0 173 173
- 0.456958 0 1 poisson 210 ------- 0 0.0 1.0 181 181
+ 0.457681 0 1 poisson 210 ------- 0 0.0 1.0 184 184
+ 0.457681 0 1 poisson 210 ------- 0 0.0 1.0 185 185
+ 0.457681 0 1 poisson 210 ------- 0 0.0 1.0 186 186
+ 0.457681 0 1 poisson 210 ------- 0 0.0 1.0 187 187
+ 0.457681 0 1 poisson 210 ------- 0 0.0 1.0 188 188
+ 0.457681 0 1 poisson 210 ------- 0 0.0 1.0 189 189
+ 0.457681 0 1 poisson 210 ------- 0 0.0 1.0 190 190
+ 0.457681 0 1 poisson 30 ------- 0 0.0 1.0 191 191
r 0.458318 0 1 poisson 210 ------- 0 0.0 1.0 174 174
r 0.458558 0 1 poisson 30 ------- 0 0.0 1.0 175 175
- 0.458638 0 1 poisson 210 ------- 0 0.0 1.0 182 182
r 0.460238 0 1 poisson 210 ------- 0 0.0 1.0 176 176
- 0.460318 0 1 poisson 30 ------- 0 0.0 1.0 183 183
- 0.460558 0 1 poisson 210 ------- 0 0.0 1.0 184 184
r 0.461918 0 1 poisson 210 ------- 0 0.0 1.0 177 177
- 0.462238 0 1 poisson 210 ------- 0 0.0 1.0 185 185
r 0.463598 0 1 poisson 210 ------- 0 0.0 1.0 178 178
- 0.463918 0 1 poisson 210 ------- 0 0.0 1.0 186 186
r 0.465278 0 1 poisson 210 ------- 0 0.0 1.0 179 179
- 0.465598 0 1 poisson 210 ------- 0 0.0 1.0 187 187
r 0.466958 0 1 poisson 210 ------- 0 0.0 1.0 180 180
- 0.467278 0 1 poisson 210 ------- 0 0.0 1.0 188 188
r 0.468638 0 1 poisson 210 ------- 0 0.0 1.0 181 181
- 0.468958 0 1 poisson 210 ------- 0 0.0 1.0 189 189
+ 0.468984 0 1 poisson 210 ------- 0 0.0 1.0 192 192
+ 0.468984 0 1 poisson 210 ------- 0 0.0 1.0 193 193
+ 0.468984 0 1 poisson 210 ------- 0 0.0 1.0 194 194
+ 0.468984 0 1 poisson 210 ------- 0 0.0 1.0 195 195
+ 0.468984 0 1 poisson 210 ------- 0 0.0 1.0 196 196
+ 0.468984 0 1 poisson 210 ------- 0 0.0 1.0 197 197
+ 0.468984 0 1 poisson 210 ------- 0 0.0 1.0 198 198
+ 0.468984 0 1 poisson 30 ------- 0 0.0 1.0 199 199
r 0.470318 0 1 poisson 210 ------- 0 0.0 1.0 182 182
r 0.470558 0 1 poisson 30 ------- 0 0.0 1.0 183 183
- 0.470638 0 1 poisson 210 ------- 0 0.0 1.0 190 190
r 0.472238 0 1 poisson 210 ------- 0 0.0 1.0 184 184
- 0.472318 0 1 poisson 30 ------- 0 0.0 1.0 191 191
- 0.472558 0 1 poisson 210 ------- 0 0.0 1.0 192 192
r 0.473918 0 1 poisson 210 ------- 0 0.0 1.0 185 185
- 0.474238 0 1 poisson 210 ------- 0 0.0 1.0 193 193
r 0.475598 0 1 poisson 210 ------- 0 0.0 1.0 186 186