+ 0 0 1 poisson 210 ------- 0 0.0 1.0 0 0
- 0 0 1 poisson 210 ------- 0 0.0 1.0 0 0
+ 0 0 1 poisson 210 ------- 0 0.0 1.0 1 1
+ 0 0 1 poisson 210 ------- 0 0.0 1.0 2 2
+ 0 0 1 poisson 210 ------- 0 0.0 1.0 3 3
+ 0 0 1 poisson 210 ------- 0 0.0 1.0 4 4
+ 0 0 1 poisson 210 ------- 0 0.0 1.0 5 5
+ 0 0 1 poisson 210 ------- 0 0.0 1.0 6 6
+ 0 0 1 poisson 30 ------- 0 0.0 1.0 7 7
- 0.00168 0 1 poisson 210 ------- 0 0.0 1.0 1 1
- 0.00336 0 1 poisson 210 ------- 0 0.0 1.0 2 2
- 0.00504 0 1 poisson 210 ------- 0 0.0 1.0 3 3
- 0.00672 0 1 poisson 210 ------- 0 0.0 1.0 4 4
- 0.0084 0 1 poisson 210 ------- 0 0.0 1.0 5 5
- 0.01008 0 1 poisson 210 ------- 0 0.0 1.0 6 6
r 0.01168 0 1 poisson 210 ------- 0 0.0 1.0 0 0
- 0.01176 0 1 poisson 30 ------- 0 0.0 1.0 7 7
r 0.01336 0 1 poisson 210 ------- 0 0.0 1.0 1 1
r 0.01504 0 1 poisson 210 ------- 0 0.0 1.0 2 2
r 0.01672 0 1 poisson 210 ------- 0 0.0 1.0 3 3
r 0.0184 0 1 poisson 210 ------- 0 0.0 1.0 4 4
r 0.02008 0 1 poisson 210 ------- 0 0.0 1.0 5 5
r 0.02176 0 1 poisson 210 ------- 0 0.0 1.0 6 6
r 0.022 0 1 poisson 30 ------- 0 0.0 1.0 7 7
+ 0.063902 0 1 poisson 210 ------- 0 0.0 1.0 8 8
- 0.063902 0 1 poisson 210 ------- 0 0.0 1.0 8 8
+ 0.063902 0 1 poisson 210 ------- 0 0.0 1.0 9 9
+ 0.063902 0 1 poisson 210 ------- 0 0.0 1.0 10 10
+ 0.063902 0 1 poisson 210 ------- 0 0.0 1.0 11 11
+ 0.063902 0 1 poisson 210 ------- 0 0.0 1.0 12 12
+ 0.063902 0 1 poisson 210 ------- 0 0.0 1.0 13 13
+ 0.063902 0 1 poisson 210 ------- 0 0.0 1.0 14 14
+ 0.063902 0 1 poisson 30 ------- 0 0.0 1.0 15 15
- 0.065582 0 1 poisson 210 ------- 0 0.0 1.0 9 9
- 0.067262 0 1 poisson 210 ------- 0 0.0 1.0 10 10
+ 0.0686 0 1 poisson 210 ------- 0 0.0 1.0 16 16
+ 0.0686 0 1 poisson 210 ------- 0 0.0 1.0 17 17
+ 0.0686 0 1 poisson 210 ------- 0 0.0 1.0 18 18
+ 0.0686 0 1 poisson 210 ------- 0 0.0 1.0 19 19
+ 0.0686 0 1 poisson 210 ------- 0 0.0 1.0 20 20
+ 0.0686 0 1 poisson 210 ------- 0 0.0 1.0 21 21
+ 0.0686 0 1 poisson 210 ------- 0 0.0 1.0 22 22
+ 0.0686 0 1 poisson 30 ------- 0 0.0 1.0 23 23
- 0.068942 0 1 poisson 210 ------- 0 0.0 1.0 11 11
- 0.070622 0 1 poisson 210 ------- 0 0.0 1.0 12 12
- 0.072302 0 1 poisson 210 ------- 0 0.0 1.0 13 13
- 0.073982 0 1 poisson 210 ------- 0 0.0 1.0 14 14
r 0.075582 0 1 poisson 210 ------- 0 0.0 1.0 8 8
- 0.075662 0 1 poisson 30 ------- 0 0.0 1.0 15 15
- 0.075902 0 1 poisson 210 ------- 0 0.0 1.0 16 16
r 0.077262 0 1 poisson 210 ------- 0 0.0 1.0 9 9
- 0.077582 0 1 poisson 210 ------- 0 0.0 1.0 17 17
r 0.078942 0 1 poisson 210 ------- 0 0.0 1.0 10 10
- 0.079262 0 1 poisson 210 ------- 0 0.0 1.0 18 18
r 0.080622 0 1 poisson 210 ------- 0 0.0 1.0 11 11
- 0.080942 0 1 poisson 210 ------- 0 0.0 1.0 19 19
r 0.082302 0 1 poisson 210 ------- 0 0.0 1.0 12 12
- 0.082622 0 1 poisson 210 ------- 0 0.0 1.0 20 20
r 0.083982 0 1 poisson 210 ------- 0 0.0 1.0 13 13
- 0.084302 0 1 poisson 210 ------- 0 0.0 1.0 21 21
r 0.085662 0 1 poisson 210 ------- 0 0.0 1.0 14 14
r 0.085902 0 1 poisson 30 ------- 0 0.0 1.0 15 15
- 0.085982 0 1 poisson 210 ------- 0 0.0 1.0 22 22
r 0.087582 0 1 poisson 210 ------- 0 0.0 1.0 16 16
- 0.087662 0 1 poisson 30 ------- 0 0.0 1.0 23 23
r 0.089262 0 1 poisson 210 ------- 0 0.0 1.0 17 17
r 0.090942 0 1 poisson 210 ------- 0 0.0 1.0 18 18
r 0.092622 0 1 poisson 210 ------- 0 0.0 1.0 19 19
r 0.094302 0 1 poisson 210 ------- 0 0.0 1.0 20 20
r 0.095982 0 1 poisson 210 ------- 0 0.0 1.0 21 21
r 0.097662 0 1 poisson 210 ------- 0 0.0 1.0 22 22
r 0.097902 0 1 poisson 30 ------- 0 0.0 1.0 23 23
+ 0.102634 0 1 poisson 210 ------- 0 0.0 1.0 24 24
- 0.102634 0 1 poisson 210 ------- 0 0.0 1.0 24 24
+ 0.102634 0 1 poisson 210 ------- 0 0.0 1.0 25 25
+ 0.102634 0 1 poisson 210 ------- 0 0.0 1.0 26 26
+ 0.102634 0 1 poisson 210 ------- 0 0.0 1.0 27 27
+ 0.102634 0 1 poisson 210 ------- 0 0.0 1.0 28 28
+ 0.102634 0 1 poisson 210 ------- 0 0.0 1.0 29 29
+ 0.102634 0 1 poisson 210 ------- 0 0.0 1.0 30 30
+ 0.102634 0 1 poisson 30 ------- 0 0.0 1.0 31 31
- 0.104314 0 1 poisson 210 ------- 0 0.0 1.0 25 25
- 0.105994 0 1 poisson 210 ------- 0 0.0 1.0 26 26
- 0.107674 0 1 poisson 210 ------- 0 0.0 1.0 27 27
- 0.109354 0 1 poisson 210 ------- 0 0.0 1.0 28 28
- 0.111034 0 1 poisson 210 ------- 0 0.0 1.0 29 29
- 0.112714 0 1 poisson 210 ------- 0 0.0 1.0 30 30
r 0.114314 0 1 poisson 210 ------- 0 0.0 1.0 24 24
- 0.114394 0 1 poisson 30 ------- 0 0.0 1.0 31 31
r 0.115994 0 1 poisson 210 ------- 0 0.0 1.0 25 25
r 0.117674 0 1 poisson 210 ------- 0 0.0 1.0 26 26
r 0.119354 0 1 poisson 210 ------- 0 0.0 1.0 27 27
r 0.121034 0 1 poisson 210 ------- 0 0.0 1.0 28 28
+ 0.122066 0 1 poisson 210 ------- 0 0.0 1.0 32 32
- 0.122066 0 1 poisson 210 ------- 0 0.0 1.0 32 32
+ 0.122066 0 1 poisson 210 ------- 0 0.0 1.0 33 33
+ 0.122066 0 1 poisson 210 ------- 0 0.0 1.0 34 34
+ 0.122066 0 1 poisson 210 ------- 0 0.0 1.0 35 35
+ 0.122066 0 1 poisson 210 ------- 0 0.0 1.0 36 36
+ 0.122066 0 1 poisson 210 ------- 0 0.0 1.0 37 37
+ 0.122066 0 1 poisson 210 ------- 0 0.0 1.0 38 38
+ 0.122066 0 1 poisson 30 ------- 0 0.0 1.0 39 39
r 0.122714 0 1 poisson 210 ------- 0 0.0 1.0 29 29
- 0.123746 0 1 poisson 210 ------- 0 0.0 1.0 33 33
r 0.124394 0 1 poisson 210 ------- 0 0.0 1.0 30 30
r 0.124634 0 1 poisson 30 ------- 0 0.0 1.0 31 31
- 0.125426 0 1 poisson 210 ------- 0 0.0 1.0 34 34
- 0.127106 0 1 poisson 210 ------- 0 0.0 1.0 35 35
+ 0.128612 0 1 poisson 210 ------- 0 0.0 1.0 40 40
+ 0.128612 0 1 poisson 210 ------- 0 0.0 1.0 41 41
+ 0.128612 0 1 poisson 210 ------- 0 0.0 1.0 42 42
+ 0.128612 0 1 poisson 210 ------- 0 0.0 1.0 43 43
+ 0.128612 0 1 poisson 210 ------- 0 0.0 1.0 44 44
+ 0.128612 0 1 poisson 210 ------- 0 0.0 1.0 45 45
+ 0.128612 0 1 poisson 210 ------- 0 0.0 1.0 46 46
+ 0.128612 0 1 poisson 30 ------- 0 0.0 1.0 47 47
- 0.128786 0 1 poisson 210 ------- 0 0.0 1.0 36 36
+ 0.130406 0 1 poisson 210 ------- 0 0.0 1.0 48 48
+ 0.130406 0 1 poisson 210 ------- 0 0.0 1.0 49 49
+ 0.130406 0 1 poisson 210 ------- 0 0.0 1.0 50 50
+ 0.130406 0 1 poisson 210 ------- 0 0.0 1.0 51 51
+ 0.130406 0 1 poisson 210 ------- 0 0.0 1.0 52 52
+ 0.130406 0 1 poisson 210 ------- 0 0.0 1.0 53 53
+ 0.130406 0 1 poisson 210 ------- 0 0.0 1.0 54 54
+ 0.130406 0 1 poisson 30 ------- 0 0.0 1.0 55 55
- 0.130466 0 1 poisson 210 ------- 0 0.0 1.0 37 37
- 0.132146 0 1 poisson 210 ------- 0 0.0 1.0 38 38
r 0.133746 0 1 poisson 210 ------- 0 0.0 1.0 32 32
- 0.133826 0 1 poisson 30 ------- 0 0.0 1.0 39 39
- 0.134066 0 1 poisson 210 ------- 0 0.0 1.0 40 40
r 0.135426 0 1 poisson 210 ------- 0 0.0 1.0 33 33
- 0.135746 0 1 poisson 210 ------- 0 0.0 1.0 41 41
r 0.137106 0 1 poisson 210 ------- 0 0.0 1.0 34 34
- 0.137426 0 1 poisson 210 ------- 0 0.0 1.0 42 42
r 0.138786 0 1 poisson 210 ------- 0 0.0 1.0 35 35
- 0.139106 0 1 poisson 210 ------- 0 0.0 1.0 43 43
+ 0.139699 0 1 poisson 210 ------- 0 0.0 1.0 56 56
+ 0.139699 0 1 poisson 210 ------- 0 0.0 1.0 57 57
+ 0.139699 0 1 poisson 210 ------- 0 0.0 1.0 58 58
+ 0.139699 0 1 poisson 210 ------- 0 0.0 1.0 59 59
+ 0.139699 0 1 poisson 210 ------- 0 0.0 1.0 60 60
+ 0.139699 0 1 poisson 210 ------- 0 0.0 1.0 61 61
+ 0.139699 0 1 poisson 210 ------- 0 0.0 1.0 62 62
+ 0.139699 0 1 poisson 30 ------- 0 0.0 1.0 63 63
r 0.140466 0 1 poisson 210 ------- 0 0.0 1.0 36 36
- 0.140786 0 1 poisson 210 ------- 0 0.0 1.0 44 44
+ 0.141321 0 1 poisson 210 ------- 0 0.0 1.0 64 64
+ 0.141321 0 1 poisson 210 ------- 0 0.0 1.0 65 65
+ 0.141321 0 1 poisson 210 ------- 0 0.0 1.0 66 66
+ 0.141321 0 1 poisson 210 ------- 0 0.0 1.0 67 67
+ 0.141321 0 1 poisson 210 ------- 0 0.0 1.0 68 68
+ 0.141321 0 1 poisson 210 ------- 0 0.0 1.0 69 69
+ 0.141321 0 1 poisson 210 ------- 0 0.0 1.0 70 70
+ 0.141321 0 1 poisson 30 ------- 0 0.0 1.0 71 71
r 0.142146 0 1 poisson 210 ------- 0 0.0 1.0 37 37
- 0.142466 0 1 poisson 210 ------- 0 0.0 1.0 45 45
r 0.143826 0 1 poisson 210 ------- 0 0.0 1.0 38 38
r 0.144066 0 1 poisson 30 ------- 0 0.0 1.0 39 39
- 0.144146 0 1 poisson 210 ------- 0 0.0 1.0 46 46
r 0.145746 0 1 poisson 210 ------- 0 0.0 1.0 40 40
- 0.145826 0 1 poisson 30 ------- 0 0.0 1.0 47 47
- 0.146066 0 1 poisson 210 ------- 0 0.0 1.0 48 48
r 0.147426 0 1 poisson 210 ------- 0 0.0 1.0 41 41
- 0.147746 0 1 poisson 210 ------- 0 0.0 1.0 49 49
r 0.149106 0 1 poisson 210 ------- 0 0.0 1.0 42 42
- 0.149426 0 1 poisson 210 ------- 0 0.0 1.0 50 50
r 0.150786 0 1 poisson 210 ------- 0 0.0 1.0 43 43
- 0.151106 0 1 poisson 210 ------- 0 0.0 1.0 51 51
r 0.152466 0 1 poisson 210 ------- 0 0.0 1.0 44 44
- 0.152786 0 1 poisson 210 ------- 0 0.0 1.0 52 52
+ 0.15292 0 1 poisson 210 ------- 0 0.0 1.0 72 72
+ 0.15292 0 1 poisson 210 ------- 0 0.0 1.0 73 73
+ 0.15292 0 1 poisson 210 ------- 0 0.0 1.0 74 74
+ 0.15292 0 1 poisson 210 ------- 0 0.0 1.0 75 75
+ 0.15292 0 1 poisson 210 ------- 0 0.0 1.0 76 76
+ 0.15292 0 1 poisson 210 ------- 0 0.0 1.0 77 77
+ 0.15292 0 1 poisson 210 ------- 0 0.0 1.0 78 78
+ 0.15292 0 1 poisson 30 ------- 0 0.0 1.0 79 79
r 0.154146 0 1 poisson 210 ------- 0 0.0 1.0 45 45
- 0.154466 0 1 poisson 210 ------- 0 0.0 1.0 53 53
r 0.155826 0 1 poisson 210 ------- 0 0.0 1.0 46 46
r 0.156066 0 1 poisson 30 ------- 0 0.0 1.0 47 47
- 0.156146 0 1 poisson 210 ------- 0 0.0 1.0 54 54
+ 0.156505 0 1 poisson 210 ------- 0 0.0 1.0 80 80
+ 0.156505 0 1 poisson 210 ------- 0 0.0 1.0 81 81
+ 0.156505 0 1 poisson 210 ------- 0 0.0 1.0 82 82
+ 0.156505 0 1 poisson 210 ------- 0 0.0 1.0 83 83
+ 0.156505 0 1 poisson 210 ------- 0 0.0 1.0 84 84
+ 0.156505 0 1 poisson 210 ------- 0 0.0 1.0 85 85
+ 0.156505 0 1 poisson 210 ------- 0 0.0 1.0 86 86
+ 0.156505 0 1 poisson 30 ------- 0 0.0 1.0 87 87
r 0.157746 0 1 poisson 210 ------- 0 0.0 1.0 48 48
- 0.157826 0 1 poisson 30 ------- 0 0.0 1.0 55 55
- 0.158066 0 1 poisson 210 ------- 0 0.0 1.0 56 56
r 0.159426 0 1 poisson 210 ------- 0 0.0 1.0 49 49
- 0.159746 0 1 poisson 210 ------- 0 0.0 1.0 57 57
r 0.161106 0 1 poisson 210 ------- 0 0.0 1.0 50 50
- 0.161426 0 1 poisson 210 ------- 0 0.0 1.0 58 58
r 0.162786 0 1 poisson 210 ------- 0 0.0 1.0 51 51
- 0.163106 0 1 poisson 210 ------- 0 0.0 1.0 59 59
r 0.164466 0 1 poisson 210 ------- 0 0.0 1.0 52 52
- 0.164786 0 1 poisson 210 ------- 0 0.0 1.0 60 60
+ 0.165898 0 1 poisson 210 ------- 0 0.0 1.0 88 88
+ 0.165898 0 1 poisson 210 ------- 0 0.0 1.0 89 89
+ 0.165898 0 1 poisson 210 ------- 0 0.0 1.0 90 90
+ 0.165898 0 1 poisson 210 ------- 0 0.0 1.0 91 91
+ 0.165898 0 1 poisson 210 ------- 0 0.0 1.0 92 92
+ 0.165898 0 1 poisson 210 ------- 0 0.0 1.0 93 93
+ 0.165898 0 1 poisson 210 ------- 0 0.0 1.0 94 94
+ 0.165898 0 1 poisson 30 ------- 0 0.0 1.0 95 95
r 0.166146 0 1 poisson 210 ------- 0 0.0 1.0 53 53
- 0.166466 0 1 poisson 210 ------- 0 0.0 1.0 61 61
+ 0.167328 0 1 poisson 210 ------- 0 0.0 1.0 96 96
+ 0.167328 0 1 poisson 210 ------- 0 0.0 1.0 97 97
+ 0.167328 0 1 poisson 210 ------- 0 0.0 1.0 98 98
+ 0.167328 0 1 poisson 210 ------- 0 0.0 1.0 99 99
+ 0.167328 0 1 poisson 210 ------- 0 0.0 1.0 100 100
+ 0.167328 0 1 poisson 210 ------- 0 0.0 1.0 101 101
+ 0.167328 0 1 poisson 210 ------- 0 0.0 1.0 102 102
+ 0.167328 0 1 poisson 30 ------- 0 0.0 1.0 103 103
r 0.167826 0 1 poisson 210 ------- 0 0.0 1.0 54 54
r 0.168066 0 1 poisson 30 ------- 0 0.0 1.0 55 55
- 0.168146 0 1 poisson 210 ------- 0 0.0 1.0 62 62
r 0.169746 0 1 poisson 210 ------- 0 0.0 1.0 56 56
- 0.169826 0 1 poisson 30 ------- 0 0.0 1.0 63 63
- 0.170066 0 1 poisson 210 ------- 0 0.0 1.0 64 64
r 0.171426 0 1 poisson 210 ------- 0 0.0 1.0 57 57
- 0.171746 0 1 poisson 210 ------- 0 0.0 1.0 65 65
r 0.173106 0 1 poisson 210 ------- 0 0.0 1.0 58 58
- 0.173426 0 1 poisson 210 ------- 0 0.0 1.0 66 66
r 0.174786 0 1 poisson 210 ------- 0 0.0 1.0 59 59
- 0.175106 0 1 poisson 210 ------- 0 0.0 1.0 67 67
r 0.176466 0 1 poisson 210 ------- 0 0.0 1.0 60 60
- 0.176786 0 1 poisson 210 ------- 0 0.0 1.0 68 68
r 0.178146 0 1 poisson 210 ------- 0 0.0 1.0 61 61
- 0.178466 0 1 poisson 210 ------- 0 0.0 1.0 69 69
r 0.179826 0 1 poisson 210 ------- 0 0.0 1.0 62 62
r 0.180066 0 1 poisson 30 ------- 0 0.0 1.0 63 63
- 0.180146 0 1 poisson 210 ------- 0 0.0 1.0 70 70
r 0.181746 0 1 poisson 210 ------- 0 0.0 1.0 64 64
+ 0.181784 0 1 poisson 210 ------- 0 0.0 1.0 104 104
+ 0.181784 0 1 poisson 210 ------- 0 0.0 1.0 105 105
+ 0.181784 0 1 poisson 210 ------- 0 0.0 1.0 106 106
+ 0.181784 0 1 poisson 210 ------- 0 0.0 1.0 107 107
+ 0.181784 0 1 poisson 210 ------- 0 0.0 1.0 108 108
+ 0.181784 0 1 poisson 210 ------- 0 0.0 1.0 109 109
+ 0.181784 0 1 poisson 210 ------- 0 0.0 1.0 110 110
+ 0.181784 0 1 poisson 30 ------- 0 0.0 1.0 111 111
- 0.181826 0 1 poisson 30 ------- 0 0.0 1.0 71 71
- 0.182066 0 1 poisson 210 ------- 0 0.0 1.0 72 72
r 0.183426 0 1 poisson 210 ------- 0 0.0 1.0 65 65
- 0.183746 0 1 poisson 210 ------- 0 0.0 1.0 73 73
r 0.185106 0 1 poisson 210 ------- 0 0.0 1.0 66 66
- 0.185426 0 1 poisson 210 ------- 0 0.0 1.0 74 74
r 0.186786 0 1 poisson 210 ------- 0 0.0 1.0 67 67
- 0.187106 0 1 poisson 210 ------- 0 0.0 1.0 75 75
r 0.188466 0 1 poisson 210 ------- 0 0.0 1.0 68 68
- 0.188786 0 1 poisson 210 ------- 0 0.0 1.0 76 76
r 0.190146 0 1 poisson 210 ------- 0 0.0 1.0 69 69
- 0.190466 0 1 poisson 210 ------- 0 0.0 1.0 77 77
r 0.191826 0 1 poisson 210 ------- 0 0.0 1.0 70 70
r 0.192066 0 1 poisson 30 ------- 0 0.0 1.0 71 71
- 0.192146 0 1 poisson 210 ------- 0 0.0 1.0 78 78
r 0.193746 0 1 poisson 210 ------- 0 0.0 1.0 72 72
- 0.193826 0 1 poisson 30 ------- 0 0.0 1.0 79 79
- 0.194066 0 1 poisson 210 ------- 0 0.0 1.0 80 80
r 0.195426 0 1 poisson 210 ------- 0 0.0 1.0 73 73
- 0.195746 0 1 poisson 210 ------- 0 0.0 1.0 81 81
r 0.197106 0 1 poisson 210 ------- 0 0.0 1.0 74 74
- 0.197426 0 1 poisson 210 ------- 0 0.0 1.0 82 82
r 0.198786 0 1 poisson 210 ------- 0 0.0 1.0 75 75
- 0.199106 0 1 poisson 210 ------- 0 0.0 1.0 83 83
r 0.200466 0 1 poisson 210 ------- 0 0.0 1.0 76 76
- 0.200786 0 1 poisson 210 ------- 0 0.0 1.0 84 84
r 0.202146 0 1 poisson 210 ------- 0 0.0 1.0 77 77
- 0.202466 0 1 poisson 210 ------- 0 0.0 1.0 85 85
r 0.203826 0 1 poisson 210 ------- 0 0.0 1.0 78 78
r 0.204066 0 1 poisson 30 ------- 0 0.0 1.0 79 79
- 0.204146 0 1 poisson 210 ------- 0 0.0 1.0 86 86
r 0.205746 0 1 poisson 210 ------- 0 0.0 1.0 80 80
- 0.205826 0 1 poisson 30 ------- 0 0.0 1.0 87 87
- 0.206066 0 1 poisson 210 ------- 0 0.0 1.0 88 88
+ 0.206995 0 1 poisson 210 ------- 0 0.0 1.0 112 112
+ 0.206995 0 1 poisson 210 ------- 0 0.0 1.0 113 113
+ 0.206995 0 1 poisson 210 ------- 0 0.0 1.0 114 114
+ 0.206995 0 1 poisson 210 ------- 0 0.0 1.0 115 115
+ 0.206995 0 1 poisson 210 ------- 0 0.0 1.0 116 116
+ 0.206995 0 1 poisson 210 ------- 0 0.0 1.0 117 117
+ 0.206995 0 1 poisson 210 ------- 0 0.0 1.0 118 118
+ 0.206995 0 1 poisson 30 ------- 0 0.0 1.0 119 119
r 0.207426 0 1 poisson 210 ------- 0 0.0 1.0 81 81
- 0.207746 0 1 poisson 210 ------- 0 0.0 1.0 89 89
r 0.209106 0 1 poisson 210 ------- 0 0.0 1.0 82 82
- 0.209426 0 1 poisson 210 ------- 0 0.0 1.0 90 90
+ 0.210564 0 1 poisson 210 ------- 0 0.0 1.0 120 120
+ 0.210564 0 1 poisson 210 ------- 0 0.0 1.0 121 121
+ 0.210564 0 1 poisson 210 ------- 0 0.0 1.0 122 122
+ 0.210564 0 1 poisson 210 ------- 0 0.0 1.0 123 123
+ 0.210564 0 1 poisson 210 ------- 0 0.0 1.0 124 124
+ 0.210564 0 1 poisson 210 ------- 0 0.0 1.0 125 125
+ 0.210564 0 1 poisson 210 ------- 0 0.0 1.0 126 126
+ 0.210564 0 1 poisson 30 ------- 0 0.0 1.0 127 127
r 0.210786 0 1 poisson 210 ------- 0 0.0 1.0 83 83
- 0.211106 0 1 poisson 210 ------- 0 0.0 1.0 91 91
r 0.212466 0 1 poisson 210 ------- 0 0.0 1.0 84 84
- 0.212786 0 1 poisson 210 ------- 0 0.0 1.0 92 92
r 0.214146 0 1 poisson 210 ------- 0 0.0 1.0 85 85
- 0.214466 0 1 poisson 210 ------- 0 0.0 1.0 93 93
r 0.215826 0 1 poisson 210 ------- 0 0.0 1.0 86 86
r 0.216066 0 1 poisson 30 ------- 0 0.0 1.0 87 87
- 0.216146 0 1 poisson 210 ------- 0 0.0 1.0 94 94
r 0.217746 0 1 poisson 210 ------- 0 0.0 1.0 88 88
- 0.217826 0 1 poisson 30 ------- 0 0.0 1.0 95 95
- 0.218066 0 1 poisson 210 ------- 0 0.0 1.0 96 96
r 0.219426 0 1 poisson 210 ------- 0 0.0 1.0 89 89
- 0.219746 0 1 poisson 210 ------- 0 0.0 1.0 97 97
r 0.221106 0 1 poisson 210 ------- 0 0.0 1.0 90 90
- 0.221426 0 1 poisson 210 ------- 0 0.0 1.0 98 98
r 0.222786 0 1 poisson 210 ------- 0 0.0 1.0 91 91
- 0.223106 0 1 poisson 210 ------- 0 0.0 1.0 99 99
r 0.224466 0 1 poisson 210 ------- 0 0.0 1.0 92 92
- 0.224786 0 1 poisson 210 ------- 0 0.0 1.0 100 100
r 0.226146 0 1 poisson 210 ------- 0 0.0 1.0 93 93
- 0.226466 0 1 poisson 210 ------- 0 0.0 1.0 101 101
r 0.227826 0 1 poisson 210 ------- 0 0.0 1.0 94 94
+ 0.22795 0 1 poisson 210 ------- 0 0.0 1.0 128 128
+ 0.22795 0 1 poisson 210 ------- 0 0.0 1.0 129 129
+ 0.22795 0 1 poisson 210 ------- 0 0.0 1.0 130 130
+ 0.22795 0 1 poisson 210 ------- 0 0.0 1.0 131 131
+ 0.22795 0 1 poisson 210 ------- 0 0.0 1.0 132 132
+ 0.22795 0 1 poisson 210 ------- 0 0.0 1.0 133 133
+ 0.22795 0 1 poisson 210 ------- 0 0.0 1.0 134 134
+ 0.22795 0 1 poisson 30 ------- 0 0.0 1.0 135 135
r 0.228066 0 1 poisson 30 ------- 0 0.0 1.0 95 95
- 0.228146 0 1 poisson 210 ------- 0 0.0 1.0 102 102
+ 0.229159 0 1 poisson 210 ------- 0 0.0 1.0 136 136
+ 0.229159 0 1 poisson 210 ------- 0 0.0 1.0 137 137
+ 0.229159 0 1 poisson 210 ------- 0 0.0 1.0 138 138
+ 0.229159 0 1 poisson 210 ------- 0 0.0 1.0 139 139
+ 0.229159 0 1 poisson 210 ------- 0 0.0 1.0 140 140
+ 0.229159 0 1 poisson 210 ------- 0 0.0 1.0 141 141
+ 0.229159 0 1 poisson 210 ------- 0 0.0 1.0 142 142
+ 0.229159 0 1 poisson 30 ------- 0 0.0 1.0 143 143
r 0.229746 0 1 poisson 210 ------- 0 0.0 1.0 96 96
- 0.229826 0 1 poisson 30 ------- 0 0.0 1.0 103 103
- 0.230066 0 1 poisson 210 ------- 0 0.0 1.0 104 104
r 0.231426 0 1 poisson 210 ------- 0 0.0 1.0 97 97
- 0.231746 0 1 poisson 210 ------- 0 0.0 1.0 105 105
r 0.233106 0 1 poisson 210 ------- 0 0.0 1.0 98 98
- 0.233426 0 1 poisson 210 ------- 0 0.0 1.0 106 106
r 0.234786 0 1 poisson 210 ------- 0 0.0 1.0 99 99
- 0.235106 0 1 poisson 210 ------- 0 0.0 1.0 107 107
+ 0.23603 0 1 poisson 210 ------- 0 0.0 1.0 144 144
+ 0.23603 0 1 poisson 210 ------- 0 0.0 1.0 145 145
+ 0.23603 0 1 poisson 210 ------- 0 0.0 1.0 146 146
+ 0.23603 0 1 poisson 210 ------- 0 0.0 1.0 147 147
+ 0.23603 0 1 poisson 210 ------- 0 0.0 1.0 148 148
+ 0.23603 0 1 poisson 210 ------- 0 0.0 1.0 149 149
+ 0.23603 0 1 poisson 210 ------- 0 0.0 1.0 150 150
+ 0.23603 0 1 poisson 30 ------- 0 0.0 1.0 151 151
r 0.236466 0 1 poisson 210 ------- 0 0.0 1.0 100 100
- 0.236786 0 1 poisson 210 ------- 0 0.0 1.0 108 108
r 0.238146 0 1 poisson 210 ------- 0 0.0 1.0 101 101
- 0.238466 0 1 poisson 210 ------- 0 0.0 1.0 109 109
r 0.239826 0 1 poisson 210 ------- 0 0.0 1.0 102 102
r 0.240066 0 1 poisson 30 ------- 0 0.0 1.0 103 103
- 0.240146 0 1 poisson 210 ------- 0 0.0 1.0 110 110
r 0.241746 0 1 poisson 210 ------- 0 0.0 1.0 104 104
- 0.241826 0 1 poisson 30 ------- 0 0.0 1.0 111 111
- 0.242066 0 1 poisson 210 ------- 0 0.0 1.0 112 112
r 0.243426 0 1 poisson 210 ------- 0 0.0 1.0 105 105
- 0.243746 0 1 poisson 210 ------- 0 0.0 1.0 113 113
r 0.245106 0 1 poisson 210 ------- 0 0.0 1.0 106 106
- 0.245426 0 1 poisson 210 ------- 0 0.0 1.0 114 114
r 0.246786 0 1 poisson 210 ------- 0 0.0 1.0 107 107
- 0.247106 0 1 poisson 210 ------- 0 0.0 1.0 115 115
r 0.248466 0 1 poisson 210 ------- 0 0.0 1.0 108 108
- 0.248786 0 1 poisson 210 ------- 0 0.0 1.0 116 116
+ 0.249983 0 1 poisson 210 ------- 0 0.0 1.0 152 152
+ 0.249983 0 1 poisson 210 ------- 0 0.0 1.0 153 153
+ 0.249983 0 1 poisson 210 ------- 0 0.0 1.0 154 154
+ 0.249983 0 1 poisson 210 ------- 0 0.0 1.0 155 155
+ 0.249983 0 1 poisson 210 ------- 0 0.0 1.0 156 156
+ 0.249983 0 1 poisson 210 ------- 0 0.0 1.0 157 157
+ 0.249983 0 1 poisson 210 ------- 0 0.0 1.0 158 158
+ 0.249983 0 1 poisson 30 ------- 0 0.0 1.0 159 159
r 0.250146 0 1 poisson 210 ------- 0 0.0 1.0 109 109
- 0.250466 0 1 poisson 210 ------- 0 0.0 1.0 117 117
r 0.251826 0 1 poisson 210 ------- 0 0.0 1.0 110 110
r 0.252066 0 1 poisson 30 ------- 0 0.0 1.0 111 111
- 0.252146 0 1 poisson 210 ------- 0 0.0 1.0 118 118
r 0.253746 0 1 poisson 210 ------- 0 0.0 1.0 112 112
- 0.253826 0 1 poisson 30 ------- 0 0.0 1.0 119 119
- 0.254066 0 1 poisson 210 ------- 0 0.0 1.0 120 120
r 0.255426 0 1 poisson 210 ------- 0 0.0 1.0 113 113
- 0.255746 0 1 poisson 210 ------- 0 0.0 1.0 121 121
r 0.257106 0 1 poisson 210 ------- 0 0.0 1.0 114 114
- 0.257426 0 1 poisson 210 ------- 0 0.0 1.0 122 122
r 0.258786 0 1 poisson 210 ------- 0 0.0 1.0 115 115
- 0.259106 0 1 poisson 210 ------- 0 0.0 1.0 123 123
r 0.260466 0 1 poisson 210 ------- 0 0.0 1.0 116 116
- 0.260786 0 1 poisson 210 ------- 0 0.0 1.0 124 124
r 0.262146 0 1 poisson 210 ------- 0 0.0 1.0 117 117
- 0.262466 0 1 poisson 210 ------- 0 0.0 1.0 125 125
r 0.263826 0 1 poisson 210 ------- 0 0.0 1.0 118 118
r 0.264066 0 1 poisson 30 ------- 0 0.0 1.0 119 119
- 0.264146 0 1 poisson 210 ------- 0 0.0 1.0 126 126
r 0.265746 0 1 poisson 210 ------- 0 0.0 1.0 120 120
- 0.265826 0 1 poisson 30 ------- 0 0.0 1.0 127 127
- 0.266066 0 1 poisson 210 ------- 0 0.0 1.0 128 128
r 0.267426 0 1 poisson 210 ------- 0 0.0 1.0 121 121
- 0.267746 0 1 poisson 210 ------- 0 0.0 1.0 129 129
+ 0.268886 0 1 poisson 210 ------- 0 0.0 1.0 160 160
+ 0.268886 0 1 poisson 210 ------- 0 0.0 1.0 161 161
+ 0.268886 0 1 poisson 210 ------- 0 0.0 1.0 162 162
+ 0.268886 0 1 poisson 210 ------- 0 0.0 1.0 163 163
+ 0.268886 0 1 poisson 210 ------- 0 0.0 1.0 164 164
+ 0.268886 0 1 poisson 210 ------- 0 0.0 1.0 165 165
+ 0.268886 0 1 poisson 210 ------- 0 0.0 1.0 166 166
+ 0.268886 0 1 poisson 30 ------- 0 0.0 1.0 167 167
r 0.269106 0 1 poisson 210 ------- 0 0.0 1.0 122 122
- 0.269426 0 1 poisson 210 ------- 0 0.0 1.0 130 130
+ 0.270602 0 1 poisson 210 ------- 0 0.0 1.0 168 168
+ 0.270602 0 1 poisson 210 ------- 0 0.0 1.0 169 169
+ 0.270602 0 1 poisson 210 ------- 0 0.0 1.0 170 170
+ 0.270602 0 1 poisson 210 ------- 0 0.0 1.0 171 171
+ 0.270602 0 1 poisson 210 ------- 0 0.0 1.0 172 172
+ 0.270602 0 1 poisson 210 ------- 0 0.0 1.0 173 173
+ 0.270602 0 1 poisson 210 ------- 0 0.0 1.0 174 174
+ 0.270602 0 1 poisson 30 ------- 0 0.0 1.0 175 175
r 0.270786 0 1 poisson 210 ------- 0 0.0 1.0 123 123
- 0.271106 0 1 poisson 210 ------- 0 0.0 1.0 131 131
r 0.272466 0 1 poisson 210 ------- 0 0.0 1.0 124 124
- 0.272786 0 1 poisson 210 ------- 0 0.0 1.0 132 132
r 0.274146 0 1 poisson 210 ------- 0 0.0 1.0 125 125
- 0.274466 0 1 poisson 210 ------- 0 0.0 1.0 133 133
r 0.275826 0 1 poisson 210 ------- 0 0.0 1.0 126 126
r 0.276066 0 1 poisson 30 ------- 0 0.0 1.0 127 127
- 0.276146 0 1 poisson 210 ------- 0 0.0 1.0 134 134
r 0.277746 0 1 poisson 210 ------- 0 0.0 1.0 128 128
- 0.277826 0 1 poisson 30 ------- 0 0.0 1.0 135 135
- 0.278066 0 1 poisson 210 ------- 0 0.0 1.0 136 136
+ 0.279029 0 1 poisson 210 ------- 0 0.0 1.0 176 176
+ 0.279029 0 1 poisson 210 ------- 0 0.0 1.0 177 177
+ 0.279029 0 1 poisson 210 ------- 0 0.0 1.0 178 178
+ 0.279029 0 1 poisson 210 ------- 0 0.0 1.0 179 179
+ 0.279029 0 1 poisson 210 ------- 0 0.0 1.0 180 180
+ 0.279029 0 1 poisson 210 ------- 0 0.0 1.0 181 181
+ 0.279029 0 1 poisson 210 ------- 0 0.0 1.0 182 182
+ 0.279029 0 1 poisson 30 ------- 0 0.0 1.0 183 183
r 0.279426 0 1 poisson 210 ------- 0 0.0 1.0 129 129
- 0.279746 0 1 poisson 210 ------- 0 0.0 1.0 137 137
r 0.281106 0 1 poisson 210 ------- 0 0.0 1.0 130 130
- 0.281426 0 1 poisson 210 ------- 0 0.0 1.0 138 138
r 0.282786 0 1 poisson 210 ------- 0 0.0 1.0 131 131
- 0.283106 0 1 poisson 210 ------- 0 0.0 1.0 139 139
r 0.284466 0 1 poisson 210 ------- 0 0.0 1.0 132 132
- 0.284786 0 1 poisson 210 ------- 0 0.0 1.0 140 140
r 0.286146 0 1 poisson 210 ------- 0 0.0 1.0 133 133
- 0.286466 0 1 poisson 210 ------- 0 0.0 1.0 141 141
r 0.287826 0 1 poisson 210 ------- 0 0.0 1.0 134 134
r 0.288066 0 1 poisson 30 ------- 0 0.0 1.0 135 135
- 0.288146 0 1 poisson 210 ------- 0 0.0 1.0 142 142
r 0.289746 0 1 poisson 210 ------- 0 0.0 1.0 136 136
- 0.289826 0 1 poisson 30 ------- 0 0.0 1.0 143 143
+ 0.289865 0 1 poisson 210 ------- 0 0.0 1.0 184 184
+ 0.289865 0 1 poisson 210 ------- 0 0.0 1.0 185 185
+ 0.289865 0 1 poisson 210 ------- 0 0.0 1.0 186 186
+ 0.289865 0 1 poisson 210 ------- 0 0.0 1.0 187 187
+ 0.289865 0 1 poisson 210 ------- 0 0.0 1.0 188 188
+ 0.289865 0 1 poisson 210 ------- 0 0.0 1.0 189 189
+ 0.289865 0 1 poisson 210 ------- 0 0.0 1.0 190 190
+ 0.289865 0 1 poisson 30 ------- 0 0.0 1.0 191 191
- 0.290066 0 1 poisson 210 ------- 0 0.0 1.0 144 144
r 0.291426 0 1 poisson 210 ------- 0 0.0 1.0 137 137
- 0.291746 0 1 poisson 210 ------- 0 0.0 1.0 145 145
r 0.293106 0 1 poisson 210 ------- 0 0.0 1.0 138 138
- 0.293426 0 1 poisson 210 ------- 0 0.0 1.0 146 146
r 0.294786 0 1 poisson 210 ------- 0 0.0 1.0 139 139
- 0.295106 0 1 poisson 210 ------- 0 0.0 1.0 147 147
r 0.296466 0 1 poisson 210 ------- 0 0.0 1.0 140 140
- 0.296786 0 1 poisson 210 ------- 0 0.0 1.0 148 148
+ 0.297023 0 1 poisson 210 ------- 0 0.0 1.0 192 192
+ 0.297023 0 1 poisson 210 ------- 0 0.0 1.0 193 193
+ 0.297023 0 1 poisson 210 ------- 0 0.0 1.0 194 194
+ 0.297023 0 1 poisson 210 ------- 0 0.0 1.0 195 195
+ 0.297023 0 1 poisson 210 ------- 0 0.0 1.0 196 196
+ 0.297023 0 1 poisson 210 ------- 0 0.0 1.0 197 197
+ 0.297023 0 1 poisson 210 ------- 0 0.0 1.0 198 198
d 0.297023 0 1 poisson 210 ------- 0 0.0 1.0 198 198
+ 0.297023 0 1 poisson 30 ------- 0 0.0 1.0 199 199
d 0.297023 0 1 poisson 30 ------- 0 0.0 1.0 199 199
r 0.298146 0 1 poisson 210 ------- 0 0.0 1.0 141 141
- 0.298466 0 1 poisson 210 ------- 0 0.0 1.0 149 149
r 0.299826 0 1 poisson 210 ------- 0 0.0 1.0 142 142
r 0.300066 0 1 poisson 30 ------- 0 0.0 1.0 143 143
- 0.300146 0 1 poisson 210 ------- 0 0.0 1.0 150 150
r 0.301746 0 1 poisson 210 ------- 0 0.0 1.0 144 144
- 0.301826 0 1 poisson 30 ------- 0 0.0 1.0 151 151
- 0.302066 0 1 poisson 210 ------- 0 0.0 1.0 152 152
+ 0.302275 0 1 poisson 210 ------- 0 0.0 1.0 200 200
+ 0.302275 0 1 poisson 210 ------- 0 0.0 1.0 201 201
+ 0.302275 0 1 poisson 210 ------- 0 0.0 1.0 202 202
+ 0.302275 0 1 poisson 210 ------- 0 0.0 1.0 203 203
+ 0.302275 0 1 poisson 210 ------- 0 0.0 1.0 204 204
d 0.302275 0 1 poisson 210 ------- 0 0.0 1.0 204 204
+ 0.302275 0 1 poisson 210 ------- 0 0.0 1.0 205 205
d 0.302275 0 1 poisson 210 ------- 0 0.0 1.0 205 205
+ 0.302275 0 1 poisson 210 ------- 0 0.0 1.0 206 206
d 0.302275 0 1 poisson 210 ------- 0 0.0 1.0 206 206
+ 0.302275 0 1 poisson 30 ------- 0 0.0 1.0 207 207
d 0.302275 0 1 poisson 30 ------- 0 0.0 1.0 207 207
r 0.303426 0 1 poisson 210 ------- 0 0.0 1.0 145 145
- 0.303746 0 1 poisson 210 ------- 0 0.0 1.0 153 153
r 0.305106 0 1 poisson 210 ------- 0 0.0 1.0 146 146
- 0.305426 0 1 poisson 210 ------- 0 0.0 1.0 154 154
r 0.306786 0 1 poisson 210 ------- 0 0.0 1.0 147 147
- 0.307106 0 1 poisson 210 ------- 0 0.0 1.0 155 155
+ 0.308382 0 1 poisson 210 ------- 0 0.0 1.0 208 208
+ 0.308382 0 1 poisson 210 ------- 0 0.0 1.0 209 209
+ 0.308382 0 1 poisson 210 ------- 0 0.0 1.0 210 210
+ 0.308382 0 1 poisson 210 ------- 0 0.0 1.0 211 211
d 0.308382 0 1 poisson 210 ------- 0 0.0 1.0 211 211
+ 0.308382 0 1 poisson 210 ------- 0 0.0 1.0 212 212
d 0.308382 0 1 poisson 210 ------- 0 0.0 1.0 212 212
+ 0.308382 0 1 poisson 210 ------- 0 0.0 1.0 213 213
d 0.308382 0 1 poisson 210 ------- 0 0.0 1.0 213 213
+ 0.308382 0 1 poisson 210 ------- 0 0.0 1.0 214 214
d 0.308382 0 1 poisson 210 ------- 0 0.0 1.0 214 214
+ 0.308382 0 1 poisson 30 ------- 0 0.0 1.0 215 215
d 0.308382 0 1 poisson 30 ------- 0 0.0 1.0 215 215
r 0.308466 0 1 poisson 210 ------- 0 0.0 1.0 148 148
- 0.308786 0 1 poisson 210 ------- 0 0.0 1.0 156 156
r 0.310146 0 1 poisson 210 ------- 0 0.0 1.0 149 149
- 0.310466 0 1 poisson 210 ------- 0 0.0 1.0 157 157
+ 0.311324 0 1 poisson 210 ------- 0 0.0 1.0 216 216
+ 0.311324 0 1 poisson 210 ------- 0 0.0 1.0 217 217
+ 0.311324 0 1 poisson 210 ------- 0 0.0 1.0 218 218
d 0.311324 0 1 poisson 210 ------- 0 0.0 1.0 218 218
+ 0.311324 0 1 poisson 210 ------- 0 0.0 1.0 219 219
d 0.311324 0 1 poisson 210 ------- 0 0.0 1.0 219 219
+ 0.311324 0 1 poisson 210 ------- 0 0.0 1.0 220 220
d 0.311324 0 1 poisson 210 ------- 0 0.0 1.0 220 220
+ 0.311324 0 1 poisson 210 ------- 0 0.0 1.0 221 221
d 0.311324 0 1 poisson 210 ------- 0 0.0 1.0 221 221
+ 0.311324 0 1 poisson 210 ------- 0 0.0 1.0 222 222
d 0.311324 0 1 poisson 210 ------- 0 0.0 1.0 222 222
+ 0.311324 0 1 poisson 30 ------- 0 0.0 1.0 223 223
d 0.311324 0 1 poisson 30 ------- 0 0.0 1.0 223 223
r 0.311826 0 1 poisson 210 ------- 0 0.0 1.0 150 150
r 0.312066 0 1 poisson 30 ------- 0 0.0 1.0 151 151
- 0.312146 0 1 poisson 210 ------- 0 0.0 1.0 158 158
+ 0.312511 0 1 poisson 210 ------- 0 0.0 1.0 224 224
+ 0.312511 0 1 poisson 210 ------- 0 0.0 1.0 225 225
d 0.312511 0 1 poisson 210 ------- 0 0.0 1.0 225 225
+ 0.312511 0 1 poisson 210 ------- 0 0.0 1.0 226 226
d 0.312511 0 1 poisson 210 ------- 0 0.0 1.0 226 226
+ 0.312511 0 1 poisson 210 ------- 0 0.0 1.0 227 227
d 0.312511 0 1 poisson 210 ------- 0 0.0 1.0 227 227
+ 0.312511 0 1 poisson 210 ------- 0 0.0 1.0 228 228
d 0.312511 0 1 poisson 210 ------- 0 0.0 1.0 228 228
+ 0.312511 0 1 poisson 210 ------- 0 0.0 1.0 229 229
d 0.312511 0 1 poisson 210 ------- 0 0.0 1.0 229 229
+ 0.312511 0 1 poisson 210 ------- 0 0.0 1.0 230 230
d 0.312511 0 1 poisson 210 ------- 0 0.0 1.0 230 230
+ 0.312511 0 1 poisson 30 ------- 0 0.0 1.0 231 231
d 0.312511 0 1 poisson 30 ------- 0 0.0 1.0 231 231
r 0.313746 0 1 poisson 210 ------- 0 0.0 1.0 152 152
- 0.313826 0 1 poisson 30 ------- 0 0.0 1.0 159 159
+ 0.313908 0 1 poisson 210 ------- 0 0.0 1.0 232 232
+ 0.313908 0 1 poisson 210 ------- 0 0.0 1.0 233 233
d 0.313908 0 1 poisson 210 ------- 0 0.0 1.0 233 233
+ 0.313908 0 1 poisson 210 ------- 0 0.0 1.0 234 234
d 0.313908 0 1 poisson 210 ------- 0 0.0 1.0 234 234
+ 0.313908 0 1 poisson 210 ------- 0 0.0 1.0 235 235
d 0.313908 0 1 poisson 210 ------- 0 0.0 1.0 235 235
+ 0.313908 0 1 poisson 210 ------- 0 0.0 1.0 236 236
d 0.313908 0 1 poisson 210 ------- 0 0.0 1.0 236 236
+ 0.313908 0 1 poisson 210 ------- 0 0.0 1.0 237 237
d 0.313908 0 1 poisson 210 ------- 0 0.0 1.0 237 237
+ 0.313908 0 1 poisson 210 ------- 0 0.0 1.0 238 238
d 0.313908 0 1 poisson 210 ------- 0 0.0 1.0 238 238