V -t * -v 1.0a5 -a 0
A -t * -n 1 -p 0 -o 0xffffffff -c 31 -a 1
A -t * -h 1 -m 2147483647 -s 0
n -t * -a 0 -s 0 -S UP -v circle -c black -i black
n -t * -a 1 -s 1 -S UP -v circle -c black -i black
l -t * -s 0 -d 1 -S UP -r 1000000 -D 0.01 -c black
+ -t 0 -s 0 -d 1 -p poisson -e 210 -c 0 -i 0 -a 0 -x {0.0 1.0 0 ------- null}
- -t 0 -s 0 -d 1 -p poisson -e 210 -c 0 -i 0 -a 0 -x {0.0 1.0 0 ------- null}
h -t 0 -s 0 -d 1 -p poisson -e 210 -c 0 -i 0 -a 0 -x {0.0 1.0 -1 ------- null}
+ -t 0 -s 0 -d 1 -p poisson -e 210 -c 0 -i 1 -a 0 -x {0.0 1.0 1 ------- null}
+ -t 0 -s 0 -d 1 -p poisson -e 210 -c 0 -i 2 -a 0 -x {0.0 1.0 2 ------- null}
+ -t 0 -s 0 -d 1 -p poisson -e 210 -c 0 -i 3 -a 0 -x {0.0 1.0 3 ------- null}
+ -t 0 -s 0 -d 1 -p poisson -e 210 -c 0 -i 4 -a 0 -x {0.0 1.0 4 ------- null}
+ -t 0 -s 0 -d 1 -p poisson -e 210 -c 0 -i 5 -a 0 -x {0.0 1.0 5 ------- null}
+ -t 0 -s 0 -d 1 -p poisson -e 210 -c 0 -i 6 -a 0 -x {0.0 1.0 6 ------- null}
+ -t 0 -s 0 -d 1 -p poisson -e 30 -c 0 -i 7 -a 0 -x {0.0 1.0 7 ------- null}
- -t 0.00168 -s 0 -d 1 -p poisson -e 210 -c 0 -i 1 -a 0 -x {0.0 1.0 1 ------- null}
h -t 0.00168 -s 0 -d 1 -p poisson -e 210 -c 0 -i 1 -a 0 -x {0.0 1.0 -1 ------- null}
- -t 0.00336 -s 0 -d 1 -p poisson -e 210 -c 0 -i 2 -a 0 -x {0.0 1.0 2 ------- null}
h -t 0.00336 -s 0 -d 1 -p poisson -e 210 -c 0 -i 2 -a 0 -x {0.0 1.0 -1 ------- null}
- -t 0.00504 -s 0 -d 1 -p poisson -e 210 -c 0 -i 3 -a 0 -x {0.0 1.0 3 ------- null}
h -t 0.00504 -s 0 -d 1 -p poisson -e 210 -c 0 -i 3 -a 0 -x {0.0 1.0 -1 ------- null}
- -t 0.00672 -s 0 -d 1 -p poisson -e 210 -c 0 -i 4 -a 0 -x {0.0 1.0 4 ------- null}
h -t 0.00672 -s 0 -d 1 -p poisson -e 210 -c 0 -i 4 -a 0 -x {0.0 1.0 -1 ------- null}
- -t 0.0084 -s 0 -d 1 -p poisson -e 210 -c 0 -i 5 -a 0 -x {0.0 1.0 5 ------- null}
h -t 0.0084 -s 0 -d 1 -p poisson -e 210 -c 0 -i 5 -a 0 -x {0.0 1.0 -1 ------- null}
- -t 0.01008 -s 0 -d 1 -p poisson -e 210 -c 0 -i 6 -a 0 -x {0.0 1.0 6 ------- null}
h -t 0.01008 -s 0 -d 1 -p poisson -e 210 -c 0 -i 6 -a 0 -x {0.0 1.0 -1 ------- null}
r -t 0.01168 -s 0 -d 1 -p poisson -e 210 -c 0 -i 0 -a 0 -x {0.0 1.0 0 ------- null}
- -t 0.01176 -s 0 -d 1 -p poisson -e 30 -c 0 -i 7 -a 0 -x {0.0 1.0 7 ------- null}
h -t 0.01176 -s 0 -d 1 -p poisson -e 30 -c 0 -i 7 -a 0 -x {0.0 1.0 -1 ------- null}
r -t 0.01336 -s 0 -d 1 -p poisson -e 210 -c 0 -i 1 -a 0 -x {0.0 1.0 1 ------- null}
r -t 0.01504 -s 0 -d 1 -p poisson -e 210 -c 0 -i 2 -a 0 -x {0.0 1.0 2 ------- null}
r -t 0.01672 -s 0 -d 1 -p poisson -e 210 -c 0 -i 3 -a 0 -x {0.0 1.0 3 ------- null}
r -t 0.0184 -s 0 -d 1 -p poisson -e 210 -c 0 -i 4 -a 0 -x {0.0 1.0 4 ------- null}
r -t 0.02008 -s 0 -d 1 -p poisson -e 210 -c 0 -i 5 -a 0 -x {0.0 1.0 5 ------- null}
r -t 0.02176 -s 0 -d 1 -p poisson -e 210 -c 0 -i 6 -a 0 -x {0.0 1.0 6 ------- null}
r -t 0.022 -s 0 -d 1 -p poisson -e 30 -c 0 -i 7 -a 0 -x {0.0 1.0 7 ------- null}
+ -t 0.0479268550412457 -s 0 -d 1 -p poisson -e 210 -c 0 -i 8 -a 0 -x {0.0 1.0 8 ------- null}
- -t 0.0479268550412457 -s 0 -d 1 -p poisson -e 210 -c 0 -i 8 -a 0 -x {0.0 1.0 8 ------- null}
h -t 0.0479268550412457 -s 0 -d 1 -p poisson -e 210 -c 0 -i 8 -a 0 -x {0.0 1.0 -1 ------- null}
+ -t 0.0479268550412457 -s 0 -d 1 -p poisson -e 210 -c 0 -i 9 -a 0 -x {0.0 1.0 9 ------- null}
+ -t 0.0479268550412457 -s 0 -d 1 -p poisson -e 210 -c 0 -i 10 -a 0 -x {0.0 1.0 10 ------- null}
+ -t 0.0479268550412457 -s 0 -d 1 -p poisson -e 210 -c 0 -i 11 -a 0 -x {0.0 1.0 11 ------- null}
+ -t 0.0479268550412457 -s 0 -d 1 -p poisson -e 210 -c 0 -i 12 -a 0 -x {0.0 1.0 12 ------- null}
+ -t 0.0479268550412457 -s 0 -d 1 -p poisson -e 210 -c 0 -i 13 -a 0 -x {0.0 1.0 13 ------- null}
+ -t 0.0479268550412457 -s 0 -d 1 -p poisson -e 210 -c 0 -i 14 -a 0 -x {0.0 1.0 14 ------- null}
+ -t 0.0479268550412457 -s 0 -d 1 -p poisson -e 30 -c 0 -i 15 -a 0 -x {0.0 1.0 15 ------- null}
- -t 0.0496068550412457 -s 0 -d 1 -p poisson -e 210 -c 0 -i 9 -a 0 -x {0.0 1.0 9 ------- null}
h -t 0.0496068550412457 -s 0 -d 1 -p poisson -e 210 -c 0 -i 9 -a 0 -x {0.0 1.0 -1 ------- null}
- -t 0.0512868550412457 -s 0 -d 1 -p poisson -e 210 -c 0 -i 10 -a 0 -x {0.0 1.0 10 ------- null}
h -t 0.0512868550412457 -s 0 -d 1 -p poisson -e 210 -c 0 -i 10 -a 0 -x {0.0 1.0 -1 ------- null}
+ -t 0.0514500643253322 -s 0 -d 1 -p poisson -e 210 -c 0 -i 16 -a 0 -x {0.0 1.0 16 ------- null}
+ -t 0.0514500643253322 -s 0 -d 1 -p poisson -e 210 -c 0 -i 17 -a 0 -x {0.0 1.0 17 ------- null}
+ -t 0.0514500643253322 -s 0 -d 1 -p poisson -e 210 -c 0 -i 18 -a 0 -x {0.0 1.0 18 ------- null}
+ -t 0.0514500643253322 -s 0 -d 1 -p poisson -e 210 -c 0 -i 19 -a 0 -x {0.0 1.0 19 ------- null}
+ -t 0.0514500643253322 -s 0 -d 1 -p poisson -e 210 -c 0 -i 20 -a 0 -x {0.0 1.0 20 ------- null}
+ -t 0.0514500643253322 -s 0 -d 1 -p poisson -e 210 -c 0 -i 21 -a 0 -x {0.0 1.0 21 ------- null}
+ -t 0.0514500643253322 -s 0 -d 1 -p poisson -e 210 -c 0 -i 22 -a 0 -x {0.0 1.0 22 ------- null}
+ -t 0.0514500643253322 -s 0 -d 1 -p poisson -e 30 -c 0 -i 23 -a 0 -x {0.0 1.0 23 ------- null}
- -t 0.0529668550412457 -s 0 -d 1 -p poisson -e 210 -c 0 -i 11 -a 0 -x {0.0 1.0 11 ------- null}
h -t 0.0529668550412457 -s 0 -d 1 -p poisson -e 210 -c 0 -i 11 -a 0 -x {0.0 1.0 -1 ------- null}
- -t 0.0546468550412457 -s 0 -d 1 -p poisson -e 210 -c 0 -i 12 -a 0 -x {0.0 1.0 12 ------- null}
h -t 0.0546468550412457 -s 0 -d 1 -p poisson -e 210 -c 0 -i 12 -a 0 -x {0.0 1.0 -1 ------- null}
- -t 0.0563268550412457 -s 0 -d 1 -p poisson -e 210 -c 0 -i 13 -a 0 -x {0.0 1.0 13 ------- null}
h -t 0.0563268550412457 -s 0 -d 1 -p poisson -e 210 -c 0 -i 13 -a 0 -x {0.0 1.0 -1 ------- null}
- -t 0.0580068550412457 -s 0 -d 1 -p poisson -e 210 -c 0 -i 14 -a 0 -x {0.0 1.0 14 ------- null}
h -t 0.0580068550412457 -s 0 -d 1 -p poisson -e 210 -c 0 -i 14 -a 0 -x {0.0 1.0 -1 ------- null}
r -t 0.0596068550412457 -s 0 -d 1 -p poisson -e 210 -c 0 -i 8 -a 0 -x {0.0 1.0 8 ------- null}
- -t 0.0596868550412457 -s 0 -d 1 -p poisson -e 30 -c 0 -i 15 -a 0 -x {0.0 1.0 15 ------- null}
h -t 0.0596868550412457 -s 0 -d 1 -p poisson -e 30 -c 0 -i 15 -a 0 -x {0.0 1.0 -1 ------- null}
- -t 0.0599268550412457 -s 0 -d 1 -p poisson -e 210 -c 0 -i 16 -a 0 -x {0.0 1.0 16 ------- null}
h -t 0.0599268550412457 -s 0 -d 1 -p poisson -e 210 -c 0 -i 16 -a 0 -x {0.0 1.0 -1 ------- null}
r -t 0.0612868550412457 -s 0 -d 1 -p poisson -e 210 -c 0 -i 9 -a 0 -x {0.0 1.0 9 ------- null}
- -t 0.0616068550412457 -s 0 -d 1 -p poisson -e 210 -c 0 -i 17 -a 0 -x {0.0 1.0 17 ------- null}
h -t 0.0616068550412457 -s 0 -d 1 -p poisson -e 210 -c 0 -i 17 -a 0 -x {0.0 1.0 -1 ------- null}
r -t 0.0629668550412457 -s 0 -d 1 -p poisson -e 210 -c 0 -i 10 -a 0 -x {0.0 1.0 10 ------- null}
- -t 0.0632868550412457 -s 0 -d 1 -p poisson -e 210 -c 0 -i 18 -a 0 -x {0.0 1.0 18 ------- null}
h -t 0.0632868550412457 -s 0 -d 1 -p poisson -e 210 -c 0 -i 18 -a 0 -x {0.0 1.0 -1 ------- null}
r -t 0.0646468550412457 -s 0 -d 1 -p poisson -e 210 -c 0 -i 11 -a 0 -x {0.0 1.0 11 ------- null}
- -t 0.0649668550412457 -s 0 -d 1 -p poisson -e 210 -c 0 -i 19 -a 0 -x {0.0 1.0 19 ------- null}
h -t 0.0649668550412457 -s 0 -d 1 -p poisson -e 210 -c 0 -i 19 -a 0 -x {0.0 1.0 -1 ------- null}
r -t 0.0663268550412457 -s 0 -d 1 -p poisson -e 210 -c 0 -i 12 -a 0 -x {0.0 1.0 12 ------- null}
- -t 0.0666468550412457 -s 0 -d 1 -p poisson -e 210 -c 0 -i 20 -a 0 -x {0.0 1.0 20 ------- null}
h -t 0.0666468550412457 -s 0 -d 1 -p poisson -e 210 -c 0 -i 20 -a 0 -x {0.0 1.0 -1 ------- null}
r -t 0.0680068550412457 -s 0 -d 1 -p poisson -e 210 -c 0 -i 13 -a 0 -x {0.0 1.0 13 ------- null}
- -t 0.0683268550412457 -s 0 -d 1 -p poisson -e 210 -c 0 -i 21 -a 0 -x {0.0 1.0 21 ------- null}
h -t 0.0683268550412457 -s 0 -d 1 -p poisson -e 210 -c 0 -i 21 -a 0 -x {0.0 1.0 -1 ------- null}
r -t 0.0696868550412457 -s 0 -d 1 -p poisson -e 210 -c 0 -i 14 -a 0 -x {0.0 1.0 14 ------- null}
r -t 0.0699268550412457 -s 0 -d 1 -p poisson -e 30 -c 0 -i 15 -a 0 -x {0.0 1.0 15 ------- null}
- -t 0.0700068550412457 -s 0 -d 1 -p poisson -e 210 -c 0 -i 22 -a 0 -x {0.0 1.0 22 ------- null}
h -t 0.0700068550412457 -s 0 -d 1 -p poisson -e 210 -c 0 -i 22 -a 0 -x {0.0 1.0 -1 ------- null}
r -t 0.0716068550412457 -s 0 -d 1 -p poisson -e 210 -c 0 -i 16 -a 0 -x {0.0 1.0 16 ------- null}
- -t 0.0716868550412457 -s 0 -d 1 -p poisson -e 30 -c 0 -i 23 -a 0 -x {0.0 1.0 23 ------- null}
h -t 0.0716868550412457 -s 0 -d 1 -p poisson -e 30 -c 0 -i 23 -a 0 -x {0.0 1.0 -1 ------- null}
r -t 0.0732868550412457 -s 0 -d 1 -p poisson -e 210 -c 0 -i 17 -a 0 -x {0.0 1.0 17 ------- null}
r -t 0.0749668550412457 -s 0 -d 1 -p poisson -e 210 -c 0 -i 18 -a 0 -x {0.0 1.0 18 ------- null}
r -t 0.0766468550412457 -s 0 -d 1 -p poisson -e 210 -c 0 -i 19 -a 0 -x {0.0 1.0 19 ------- null}
+ -t 0.0769751752447693 -s 0 -d 1 -p poisson -e 210 -c 0 -i 24 -a 0 -x {0.0 1.0 24 ------- null}
- -t 0.0769751752447693 -s 0 -d 1 -p poisson -e 210 -c 0 -i 24 -a 0 -x {0.0 1.0 24 ------- null}
h -t 0.0769751752447693 -s 0 -d 1 -p poisson -e 210 -c 0 -i 24 -a 0 -x {0.0 1.0 -1 ------- null}
+ -t 0.0769751752447693 -s 0 -d 1 -p poisson -e 210 -c 0 -i 25 -a 0 -x {0.0 1.0 25 ------- null}
+ -t 0.0769751752447693 -s 0 -d 1 -p poisson -e 210 -c 0 -i 26 -a 0 -x {0.0 1.0 26 ------- null}
+ -t 0.0769751752447693 -s 0 -d 1 -p poisson -e 210 -c 0 -i 27 -a 0 -x {0.0 1.0 27 ------- null}
+ -t 0.0769751752447693 -s 0 -d 1 -p poisson -e 210 -c 0 -i 28 -a 0 -x {0.0 1.0 28 ------- null}
+ -t 0.0769751752447693 -s 0 -d 1 -p poisson -e 210 -c 0 -i 29 -a 0 -x {0.0 1.0 29 ------- null}
+ -t 0.0769751752447693 -s 0 -d 1 -p poisson -e 210 -c 0 -i 30 -a 0 -x {0.0 1.0 30 ------- null}
+ -t 0.0769751752447693 -s 0 -d 1 -p poisson -e 30 -c 0 -i 31 -a 0 -x {0.0 1.0 31 ------- null}
r -t 0.0783268550412457 -s 0 -d 1 -p poisson -e 210 -c 0 -i 20 -a 0 -x {0.0 1.0 20 ------- null}
- -t 0.0786551752447693 -s 0 -d 1 -p poisson -e 210 -c 0 -i 25 -a 0 -x {0.0 1.0 25 ------- null}
h -t 0.0786551752447693 -s 0 -d 1 -p poisson -e 210 -c 0 -i 25 -a 0 -x {0.0 1.0 -1 ------- null}
r -t 0.0800068550412457 -s 0 -d 1 -p poisson -e 210 -c 0 -i 21 -a 0 -x {0.0 1.0 21 ------- null}
- -t 0.0803351752447693 -s 0 -d 1 -p poisson -e 210 -c 0 -i 26 -a 0 -x {0.0 1.0 26 ------- null}
h -t 0.0803351752447693 -s 0 -d 1 -p poisson -e 210 -c 0 -i 26 -a 0 -x {0.0 1.0 -1 ------- null}
r -t 0.0816868550412457 -s 0 -d 1 -p poisson -e 210 -c 0 -i 22 -a 0 -x {0.0 1.0 22 ------- null}
r -t 0.0819268550412457 -s 0 -d 1 -p poisson -e 30 -c 0 -i 23 -a 0 -x {0.0 1.0 23 ------- null}
- -t 0.0820151752447693 -s 0 -d 1 -p poisson -e 210 -c 0 -i 27 -a 0 -x {0.0 1.0 27 ------- null}
h -t 0.0820151752447693 -s 0 -d 1 -p poisson -e 210 -c 0 -i 27 -a 0 -x {0.0 1.0 -1 ------- null}
- -t 0.0836951752447693 -s 0 -d 1 -p poisson -e 210 -c 0 -i 28 -a 0 -x {0.0 1.0 28 ------- null}
h -t 0.0836951752447693 -s 0 -d 1 -p poisson -e 210 -c 0 -i 28 -a 0 -x {0.0 1.0 -1 ------- null}
- -t 0.0853751752447693 -s 0 -d 1 -p poisson -e 210 -c 0 -i 29 -a 0 -x {0.0 1.0 29 ------- null}
h -t 0.0853751752447693 -s 0 -d 1 -p poisson -e 210 -c 0 -i 29 -a 0 -x {0.0 1.0 -1 ------- null}
- -t 0.0870551752447693 -s 0 -d 1 -p poisson -e 210 -c 0 -i 30 -a 0 -x {0.0 1.0 30 ------- null}
h -t 0.0870551752447693 -s 0 -d 1 -p poisson -e 210 -c 0 -i 30 -a 0 -x {0.0 1.0 -1 ------- null}
r -t 0.0886551752447693 -s 0 -d 1 -p poisson -e 210 -c 0 -i 24 -a 0 -x {0.0 1.0 24 ------- null}
- -t 0.0887351752447693 -s 0 -d 1 -p poisson -e 30 -c 0 -i 31 -a 0 -x {0.0 1.0 31 ------- null}
h -t 0.0887351752447693 -s 0 -d 1 -p poisson -e 30 -c 0 -i 31 -a 0 -x {0.0 1.0 -1 ------- null}
r -t 0.0903351752447693 -s 0 -d 1 -p poisson -e 210 -c 0 -i 25 -a 0 -x {0.0 1.0 25 ------- null}
+ -t 0.0915493279028007 -s 0 -d 1 -p poisson -e 210 -c 0 -i 32 -a 0 -x {0.0 1.0 32 ------- null}
- -t 0.0915493279028007 -s 0 -d 1 -p poisson -e 210 -c 0 -i 32 -a 0 -x {0.0 1.0 32 ------- null}
h -t 0.0915493279028007 -s 0 -d 1 -p poisson -e 210 -c 0 -i 32 -a 0 -x {0.0 1.0 -1 ------- null}
+ -t 0.0915493279028007 -s 0 -d 1 -p poisson -e 210 -c 0 -i 33 -a 0 -x {0.0 1.0 33 ------- null}
+ -t 0.0915493279028007 -s 0 -d 1 -p poisson -e 210 -c 0 -i 34 -a 0 -x {0.0 1.0 34 ------- null}
+ -t 0.0915493279028007 -s 0 -d 1 -p poisson -e 210 -c 0 -i 35 -a 0 -x {0.0 1.0 35 ------- null}
+ -t 0.0915493279028007 -s 0 -d 1 -p poisson -e 210 -c 0 -i 36 -a 0 -x {0.0 1.0 36 ------- null}
+ -t 0.0915493279028007 -s 0 -d 1 -p poisson -e 210 -c 0 -i 37 -a 0 -x {0.0 1.0 37 ------- null}
+ -t 0.0915493279028007 -s 0 -d 1 -p poisson -e 210 -c 0 -i 38 -a 0 -x {0.0 1.0 38 ------- null}
+ -t 0.0915493279028007 -s 0 -d 1 -p poisson -e 30 -c 0 -i 39 -a 0 -x {0.0 1.0 39 ------- null}
r -t 0.0920151752447693 -s 0 -d 1 -p poisson -e 210 -c 0 -i 26 -a 0 -x {0.0 1.0 26 ------- null}
- -t 0.0932293279028007 -s 0 -d 1 -p poisson -e 210 -c 0 -i 33 -a 0 -x {0.0 1.0 33 ------- null}
h -t 0.0932293279028007 -s 0 -d 1 -p poisson -e 210 -c 0 -i 33 -a 0 -x {0.0 1.0 -1 ------- null}
r -t 0.0936951752447693 -s 0 -d 1 -p poisson -e 210 -c 0 -i 27 -a 0 -x {0.0 1.0 27 ------- null}
- -t 0.0949093279028007 -s 0 -d 1 -p poisson -e 210 -c 0 -i 34 -a 0 -x {0.0 1.0 34 ------- null}
h -t 0.0949093279028007 -s 0 -d 1 -p poisson -e 210 -c 0 -i 34 -a 0 -x {0.0 1.0 -1 ------- null}
r -t 0.0953751752447693 -s 0 -d 1 -p poisson -e 210 -c 0 -i 28 -a 0 -x {0.0 1.0 28 ------- null}
+ -t 0.0964592318481717 -s 0 -d 1 -p poisson -e 210 -c 0 -i 40 -a 0 -x {0.0 1.0 40 ------- null}
+ -t 0.0964592318481717 -s 0 -d 1 -p poisson -e 210 -c 0 -i 41 -a 0 -x {0.0 1.0 41 ------- null}
+ -t 0.0964592318481717 -s 0 -d 1 -p poisson -e 210 -c 0 -i 42 -a 0 -x {0.0 1.0 42 ------- null}
+ -t 0.0964592318481717 -s 0 -d 1 -p poisson -e 210 -c 0 -i 43 -a 0 -x {0.0 1.0 43 ------- null}
+ -t 0.0964592318481717 -s 0 -d 1 -p poisson -e 210 -c 0 -i 44 -a 0 -x {0.0 1.0 44 ------- null}
+ -t 0.0964592318481717 -s 0 -d 1 -p poisson -e 210 -c 0 -i 45 -a 0 -x {0.0 1.0 45 ------- null}
+ -t 0.0964592318481717 -s 0 -d 1 -p poisson -e 210 -c 0 -i 46 -a 0 -x {0.0 1.0 46 ------- null}
+ -t 0.0964592318481717 -s 0 -d 1 -p poisson -e 30 -c 0 -i 47 -a 0 -x {0.0 1.0 47 ------- null}
- -t 0.0965893279028007 -s 0 -d 1 -p poisson -e 210 -c 0 -i 35 -a 0 -x {0.0 1.0 35 ------- null}
h -t 0.0965893279028007 -s 0 -d 1 -p poisson -e 210 -c 0 -i 35 -a 0 -x {0.0 1.0 -1 ------- null}
r -t 0.0970551752447693 -s 0 -d 1 -p poisson -e 210 -c 0 -i 29 -a 0 -x {0.0 1.0 29 ------- null}
+ -t 0.0978044306005244 -s 0 -d 1 -p poisson -e 210 -c 0 -i 48 -a 0 -x {0.0 1.0 48 ------- null}
+ -t 0.0978044306005244 -s 0 -d 1 -p poisson -e 210 -c 0 -i 49 -a 0 -x {0.0 1.0 49 ------- null}
+ -t 0.0978044306005244 -s 0 -d 1 -p poisson -e 210 -c 0 -i 50 -a 0 -x {0.0 1.0 50 ------- null}
+ -t 0.0978044306005244 -s 0 -d 1 -p poisson -e 210 -c 0 -i 51 -a 0 -x {0.0 1.0 51 ------- null}
+ -t 0.0978044306005244 -s 0 -d 1 -p poisson -e 210 -c 0 -i 52 -a 0 -x {0.0 1.0 52 ------- null}
+ -t 0.0978044306005244 -s 0 -d 1 -p poisson -e 210 -c 0 -i 53 -a 0 -x {0.0 1.0 53 ------- null}
+ -t 0.0978044306005244 -s 0 -d 1 -p poisson -e 210 -c 0 -i 54 -a 0 -x {0.0 1.0 54 ------- null}
+ -t 0.0978044306005244 -s 0 -d 1 -p poisson -e 30 -c 0 -i 55 -a 0 -x {0.0 1.0 55 ------- null}
- -t 0.0982693279028007 -s 0 -d 1 -p poisson -e 210 -c 0 -i 36 -a 0 -x {0.0 1.0 36 ------- null}
h -t 0.0982693279028007 -s 0 -d 1 -p poisson -e 210 -c 0 -i 36 -a 0 -x {0.0 1.0 -1 ------- null}
r -t 0.0987351752447693 -s 0 -d 1 -p poisson -e 210 -c 0 -i 30 -a 0 -x {0.0 1.0 30 ------- null}
r -t 0.0989751752447693 -s 0 -d 1 -p poisson -e 30 -c 0 -i 31 -a 0 -x {0.0 1.0 31 ------- null}
- -t 0.0999493279028007 -s 0 -d 1 -p poisson -e 210 -c 0 -i 37 -a 0 -x {0.0 1.0 37 ------- null}
h -t 0.0999493279028007 -s 0 -d 1 -p poisson -e 210 -c 0 -i 37 -a 0 -x {0.0 1.0 -1 ------- null}
- -t 0.101629327902801 -s 0 -d 1 -p poisson -e 210 -c 0 -i 38 -a 0 -x {0.0 1.0 38 ------- null}
h -t 0.101629327902801 -s 0 -d 1 -p poisson -e 210 -c 0 -i 38 -a 0 -x {0.0 1.0 -1 ------- null}
r -t 0.103229327902801 -s 0 -d 1 -p poisson -e 210 -c 0 -i 32 -a 0 -x {0.0 1.0 32 ------- null}
- -t 0.103309327902801 -s 0 -d 1 -p poisson -e 30 -c 0 -i 39 -a 0 -x {0.0 1.0 39 ------- null}
h -t 0.103309327902801 -s 0 -d 1 -p poisson -e 30 -c 0 -i 39 -a 0 -x {0.0 1.0 -1 ------- null}
- -t 0.103549327902801 -s 0 -d 1 -p poisson -e 210 -c 0 -i 40 -a 0 -x {0.0 1.0 40 ------- null}
h -t 0.103549327902801 -s 0 -d 1 -p poisson -e 210 -c 0 -i 40 -a 0 -x {0.0 1.0 -1 ------- null}
+ -t 0.104774475987926 -s 0 -d 1 -p poisson -e 210 -c 0 -i 56 -a 0 -x {0.0 1.0 56 ------- null}
+ -t 0.104774475987926 -s 0 -d 1 -p poisson -e 210 -c 0 -i 57 -a 0 -x {0.0 1.0 57 ------- null}
+ -t 0.104774475987926 -s 0 -d 1 -p poisson -e 210 -c 0 -i 58 -a 0 -x {0.0 1.0 58 ------- null}
+ -t 0.104774475987926 -s 0 -d 1 -p poisson -e 210 -c 0 -i 59 -a 0 -x {0.0 1.0 59 ------- null}
+ -t 0.104774475987926 -s 0 -d 1 -p poisson -e 210 -c 0 -i 60 -a 0 -x {0.0 1.0 60 ------- null}
+ -t 0.104774475987926 -s 0 -d 1 -p poisson -e 210 -c 0 -i 61 -a 0 -x {0.0 1.0 61 ------- null}
+ -t 0.104774475987926 -s 0 -d 1 -p poisson -e 210 -c 0 -i 62 -a 0 -x {0.0 1.0 62 ------- null}
+ -t 0.104774475987926 -s 0 -d 1 -p poisson -e 30 -c 0 -i 63 -a 0 -x {0.0 1.0 63 ------- null}
r -t 0.104909327902801 -s 0 -d 1 -p poisson -e 210 -c 0 -i 33 -a 0 -x {0.0 1.0 33 ------- null}
- -t 0.105229327902801 -s 0 -d 1 -p poisson -e 210 -c 0 -i 41 -a 0 -x {0.0 1.0 41 ------- null}
h -t 0.105229327902801 -s 0 -d 1 -p poisson -e 210 -c 0 -i 41 -a 0 -x {0.0 1.0 -1 ------- null}
+ -t 0.105991022174584 -s 0 -d 1 -p poisson -e 210 -c 0 -i 64 -a 0 -x {0.0 1.0 64 ------- null}
+ -t 0.105991022174584 -s 0 -d 1 -p poisson -e 210 -c 0 -i 65 -a 0 -x {0.0 1.0 65 ------- null}
+ -t 0.105991022174584 -s 0 -d 1 -p poisson -e 210 -c 0 -i 66 -a 0 -x {0.0 1.0 66 ------- null}
+ -t 0.105991022174584 -s 0 -d 1 -p poisson -e 210 -c 0 -i 67 -a 0 -x {0.0 1.0 67 ------- null}
+ -t 0.105991022174584 -s 0 -d 1 -p poisson -e 210 -c 0 -i 68 -a 0 -x {0.0 1.0 68 ------- null}
+ -t 0.105991022174584 -s 0 -d 1 -p poisson -e 210 -c 0 -i 69 -a 0 -x {0.0 1.0 69 ------- null}
+ -t 0.105991022174584 -s 0 -d 1 -p poisson -e 210 -c 0 -i 70 -a 0 -x {0.0 1.0 70 ------- null}
+ -t 0.105991022174584 -s 0 -d 1 -p poisson -e 30 -c 0 -i 71 -a 0 -x {0.0 1.0 71 ------- null}
r -t 0.106589327902801 -s 0 -d 1 -p poisson -e 210 -c 0 -i 34 -a 0 -x {0.0 1.0 34 ------- null}
- -t 0.106909327902801 -s 0 -d 1 -p poisson -e 210 -c 0 -i 42 -a 0 -x {0.0 1.0 42 ------- null}
h -t 0.106909327902801 -s 0 -d 1 -p poisson -e 210 -c 0 -i 42 -a 0 -x {0.0 1.0 -1 ------- null}
r -t 0.108269327902801 -s 0 -d 1 -p poisson -e 210 -c 0 -i 35 -a 0 -x {0.0 1.0 35 ------- null}
- -t 0.108589327902801 -s 0 -d 1 -p poisson -e 210 -c 0 -i 43 -a 0 -x {0.0 1.0 43 ------- null}
h -t 0.108589327902801 -s 0 -d 1 -p poisson -e 210 -c 0 -i 43 -a 0 -x {0.0 1.0 -1 ------- null}
r -t 0.109949327902801 -s 0 -d 1 -p poisson -e 210 -c 0 -i 36 -a 0 -x {0.0 1.0 36 ------- null}
- -t 0.110269327902801 -s 0 -d 1 -p poisson -e 210 -c 0 -i 44 -a 0 -x {0.0 1.0 44 ------- null}
h -t 0.110269327902801 -s 0 -d 1 -p poisson -e 210 -c 0 -i 44 -a 0 -x {0.0 1.0 -1 ------- null}
r -t 0.111629327902801 -s 0 -d 1 -p poisson -e 210 -c 0 -i 37 -a 0 -x {0.0 1.0 37 ------- null}
- -t 0.111949327902801 -s 0 -d 1 -p poisson -e 210 -c 0 -i 45 -a 0 -x {0.0 1.0 45 ------- null}
h -t 0.111949327902801 -s 0 -d 1 -p poisson -e 210 -c 0 -i 45 -a 0 -x {0.0 1.0 -1 ------- null}
r -t 0.113309327902801 -s 0 -d 1 -p poisson -e 210 -c 0 -i 38 -a 0 -x {0.0 1.0 38 ------- null}
r -t 0.113549327902801 -s 0 -d 1 -p poisson -e 30 -c 0 -i 39 -a 0 -x {0.0 1.0 39 ------- null}
- -t 0.113629327902801 -s 0 -d 1 -p poisson -e 210 -c 0 -i 46 -a 0 -x {0.0 1.0 46 ------- null}
h -t 0.113629327902801 -s 0 -d 1 -p poisson -e 210 -c 0 -i 46 -a 0 -x {0.0 1.0 -1 ------- null}
+ -t 0.114690217426878 -s 0 -d 1 -p poisson -e 210 -c 0 -i 72 -a 0 -x {0.0 1.0 72 ------- null}
+ -t 0.114690217426878 -s 0 -d 1 -p poisson -e 210 -c 0 -i 73 -a 0 -x {0.0 1.0 73 ------- null}
+ -t 0.114690217426878 -s 0 -d 1 -p poisson -e 210 -c 0 -i 74 -a 0 -x {0.0 1.0 74 ------- null}
+ -t 0.114690217426878 -s 0 -d 1 -p poisson -e 210 -c 0 -i 75 -a 0 -x {0.0 1.0 75 ------- null}
+ -t 0.114690217426878 -s 0 -d 1 -p poisson -e 210 -c 0 -i 76 -a 0 -x {0.0 1.0 76 ------- null}
+ -t 0.114690217426878 -s 0 -d 1 -p poisson -e 210 -c 0 -i 77 -a 0 -x {0.0 1.0 77 ------- null}
+ -t 0.114690217426878 -s 0 -d 1 -p poisson -e 210 -c 0 -i 78 -a 0 -x {0.0 1.0 78 ------- null}
+ -t 0.114690217426878 -s 0 -d 1 -p poisson -e 30 -c 0 -i 79 -a 0 -x {0.0 1.0 79 ------- null}
r -t 0.115229327902801 -s 0 -d 1 -p poisson -e 210 -c 0 -i 40 -a 0 -x {0.0 1.0 40 ------- null}
- -t 0.115309327902801 -s 0 -d 1 -p poisson -e 30 -c 0 -i 47 -a 0 -x {0.0 1.0 47 ------- null}
h -t 0.115309327902801 -s 0 -d 1 -p poisson -e 30 -c 0 -i 47 -a 0 -x {0.0 1.0 -1 ------- null}
- -t 0.115549327902801 -s 0 -d 1 -p poisson -e 210 -c 0 -i 48 -a 0 -x {0.0 1.0 48 ------- null}
h -t 0.115549327902801 -s 0 -d 1 -p poisson -e 210 -c 0 -i 48 -a 0 -x {0.0 1.0 -1 ------- null}
r -t 0.116909327902801 -s 0 -d 1 -p poisson -e 210 -c 0 -i 41 -a 0 -x {0.0 1.0 41 ------- null}
- -t 0.117229327902801 -s 0 -d 1 -p poisson -e 210 -c 0 -i 49 -a 0 -x {0.0 1.0 49 ------- null}
h -t 0.117229327902801 -s 0 -d 1 -p poisson -e 210 -c 0 -i 49 -a 0 -x {0.0 1.0 -1 ------- null}
+ -t 0.117378588768551 -s 0 -d 1 -p poisson -e 210 -c 0 -i 80 -a 0 -x {0.0 1.0 80 ------- null}
+ -t 0.117378588768551 -s 0 -d 1 -p poisson -e 210 -c 0 -i 81 -a 0 -x {0.0 1.0 81 ------- null}
+ -t 0.117378588768551 -s 0 -d 1 -p poisson -e 210 -c 0 -i 82 -a 0 -x {0.0 1.0 82 ------- null}
+ -t 0.117378588768551 -s 0 -d 1 -p poisson -e 210 -c 0 -i 83 -a 0 -x {0.0 1.0 83 ------- null}
+ -t 0.117378588768551 -s 0 -d 1 -p poisson -e 210 -c 0 -i 84 -a 0 -x {0.0 1.0 84 ------- null}
+ -t 0.117378588768551 -s 0 -d 1 -p poisson -e 210 -c 0 -i 85 -a 0 -x {0.0 1.0 85 ------- null}
+ -t 0.117378588768551 -s 0 -d 1 -p poisson -e 210 -c 0 -i 86 -a 0 -x {0.0 1.0 86 ------- null}
+ -t 0.117378588768551 -s 0 -d 1 -p poisson -e 30 -c 0 -i 87 -a 0 -x {0.0 1.0 87 ------- null}
r -t 0.118589327902801 -s 0 -d 1 -p poisson -e 210 -c 0 -i 42 -a 0 -x {0.0 1.0 42 ------- null}
- -t 0.118909327902801 -s 0 -d 1 -p poisson -e 210 -c 0 -i 50 -a 0 -x {0.0 1.0 50 ------- null}
h -t 0.118909327902801 -s 0 -d 1 -p poisson -e 210 -c 0 -i 50 -a 0 -x {0.0 1.0 -1 ------- null}
r -t 0.120269327902801 -s 0 -d 1 -p poisson -e 210 -c 0 -i 43 -a 0 -x {0.0 1.0 43 ------- null}
- -t 0.120589327902801 -s 0 -d 1 -p poisson -e 210 -c 0 -i 51 -a 0 -x {0.0 1.0 51 ------- null}
h -t 0.120589327902801 -s 0 -d 1 -p poisson -e 210 -c 0 -i 51 -a 0 -x {0.0 1.0 -1 ------- null}
r -t 0.121949327902801 -s 0 -d 1 -p poisson -e 210 -c 0 -i 44 -a 0 -x {0.0 1.0 44 ------- null}
- -t 0.122269327902801 -s 0 -d 1 -p poisson -e 210 -c 0 -i 52 -a 0 -x {0.0 1.0 52 ------- null}
h -t 0.122269327902801 -s 0 -d 1 -p poisson -e 210 -c 0 -i 52 -a 0 -x {0.0 1.0 -1 ------- null}
r -t 0.123629327902801 -s 0 -d 1 -p poisson -e 210 -c 0 -i 45 -a 0 -x {0.0 1.0 45 ------- null}
- -t 0.123949327902801 -s 0 -d 1 -p poisson -e 210 -c 0 -i 53 -a 0 -x {0.0 1.0 53 ------- null}
h -t 0.123949327902801 -s 0 -d 1 -p poisson -e 210 -c 0 -i 53 -a 0 -x {0.0 1.0 -1 ------- null}
+ -t 0.124423537873771 -s 0 -d 1 -p poisson -e 210 -c 0 -i 88 -a 0 -x {0.0 1.0 88 ------- null}
+ -t 0.124423537873771 -s 0 -d 1 -p poisson -e 210 -c 0 -i 89 -a 0 -x {0.0 1.0 89 ------- null}
+ -t 0.124423537873771 -s 0 -d 1 -p poisson -e 210 -c 0 -i 90 -a 0 -x {0.0 1.0 90 ------- null}
+ -t 0.124423537873771 -s 0 -d 1 -p poisson -e 210 -c 0 -i 91 -a 0 -x {0.0 1.0 91 ------- null}
+ -t 0.124423537873771 -s 0 -d 1 -p poisson -e 210 -c 0 -i 92 -a 0 -x {0.0 1.0 92 ------- null}
+ -t 0.124423537873771 -s 0 -d 1 -p poisson -e 210 -c 0 -i 93 -a 0 -x {0.0 1.0 93 ------- null}
+ -t 0.124423537873771 -s 0 -d 1 -p poisson -e 210 -c 0 -i 94 -a 0 -x {0.0 1.0 94 ------- null}
+ -t 0.124423537873771 -s 0 -d 1 -p poisson -e 30 -c 0 -i 95 -a 0 -x {0.0 1.0 95 ------- null}
r -t 0.125309327902801 -s 0 -d 1 -p poisson -e 210 -c 0 -i 46 -a 0 -x {0.0 1.0 46 ------- null}
+ -t 0.125495976283035 -s 0 -d 1 -p poisson -e 210 -c 0 -i 96 -a 0 -x {0.0 1.0 96 ------- null}
+ -t 0.125495976283035 -s 0 -d 1 -p poisson -e 210 -c 0 -i 97 -a 0 -x {0.0 1.0 97 ------- null}
+ -t 0.125495976283035 -s 0 -d 1 -p poisson -e 210 -c 0 -i 98 -a 0 -x {0.0 1.0 98 ------- null}
+ -t 0.125495976283035 -s 0 -d 1 -p poisson -e 210 -c 0 -i 99 -a 0 -x {0.0 1.0 99 ------- null}
+ -t 0.125495976283035 -s 0 -d 1 -p poisson -e 210 -c 0 -i 100 -a 0 -x {0.0 1.0 100 ------- null}
+ -t 0.125495976283035 -s 0 -d 1 -p poisson -e 210 -c 0 -i 101 -a 0 -x {0.0 1.0 101 ------- null}
+ -t 0.125495976283035 -s 0 -d 1 -p poisson -e 210 -c 0 -i 102 -a 0 -x {0.0 1.0 102 ------- null}
+ -t 0.125495976283035 -s 0 -d 1 -p poisson -e 30 -c 0 -i 103 -a 0 -x {0.0 1.0 103 ------- null}
d -t 0.125495976283035 -s 0 -d 1 -p poisson -e 30 -c 0 -i 103 -a 0 -x {0.0 1.0 103 ------- null}
r -t 0.125549327902801 -s 0 -d 1 -p poisson -e 30 -c 0 -i 47 -a 0 -x {0.0 1.0 47 ------- null}
- -t 0.125629327902801 -s 0 -d 1 -p poisson -e 210 -c 0 -i 54 -a 0 -x {0.0 1.0 54 ------- null}
h -t 0.125629327902801 -s 0 -d 1 -p poisson -e 210 -c 0 -i 54 -a 0 -x {0.0 1.0 -1 ------- null}
r -t 0.127229327902801 -s 0 -d 1 -p poisson -e 210 -c 0 -i 48 -a 0 -x {0.0 1.0 48 ------- null}
- -t 0.127309327902801 -s 0 -d 1 -p poisson -e 30 -c 0 -i 55 -a 0 -x {0.0 1.0 55 ------- null}
h -t 0.127309327902801 -s 0 -d 1 -p poisson -e 30 -c 0 -i 55 -a 0 -x {0.0 1.0 -1 ------- null}
- -t 0.127549327902801 -s 0 -d 1 -p poisson -e 210 -c 0 -i 56 -a 0 -x {0.0 1.0 56 ------- null}
h -t 0.127549327902801 -s 0 -d 1 -p poisson -e 210 -c 0 -i 56 -a 0 -x {0.0 1.0 -1 ------- null}
r -t 0.128909327902801 -s 0 -d 1 -p poisson -e 210 -c 0 -i 49 -a 0 -x {0.0 1.0 49 ------- null}
- -t 0.129229327902801 -s 0 -d 1 -p poisson -e 210 -c 0 -i 57 -a 0 -x {0.0 1.0 57 ------- null}
h -t 0.129229327902801 -s 0 -d 1 -p poisson -e 210 -c 0 -i 57 -a 0 -x {0.0 1.0 -1 ------- null}
r -t 0.130589327902801 -s 0 -d 1 -p poisson -e 210 -c 0 -i 50 -a 0 -x {0.0 1.0 50 ------- null}
- -t 0.130909327902801 -s 0 -d 1 -p poisson -e 210 -c 0 -i 58 -a 0 -x {0.0 1.0 58 ------- null}
h -t 0.130909327902801 -s 0 -d 1 -p poisson -e 210 -c 0 -i 58 -a 0 -x {0.0 1.0 -1 ------- null}
r -t 0.132269327902801 -s 0 -d 1 -p poisson -e 210 -c 0 -i 51 -a 0 -x {0.0 1.0 51 ------- null}
- -t 0.132589327902801 -s 0 -d 1 -p poisson -e 210 -c 0 -i 59 -a 0 -x {0.0 1.0 59 ------- null}
h -t 0.132589327902801 -s 0 -d 1 -p poisson -e 210 -c 0 -i 59 -a 0 -x {0.0 1.0 -1 ------- null}
r -t 0.133949327902801 -s 0 -d 1 -p poisson -e 210 -c 0 -i 52 -a 0 -x {0.0 1.0 52 ------- null}
- -t 0.134269327902801 -s 0 -d 1 -p poisson -e 210 -c 0 -i 60 -a 0 -x {0.0 1.0 60 ------- null}
h -t 0.134269327902801 -s 0 -d 1 -p poisson -e 210 -c 0 -i 60 -a 0 -x {0.0 1.0 -1 ------- null}
r -t 0.135629327902801 -s 0 -d 1 -p poisson -e 210 -c 0 -i 53 -a 0 -x {0.0 1.0 53 ------- null}
- -t 0.135949327902801 -s 0 -d 1 -p poisson -e 210 -c 0 -i 61 -a 0 -x {0.0 1.0 61 ------- null}
h -t 0.135949327902801 -s 0 -d 1 -p poisson -e 210 -c 0 -i 61 -a 0 -x {0.0 1.0 -1 ------- null}
+ -t 0.13633799199319 -s 0 -d 1 -p poisson -e 210 -c 0 -i 104 -a 0 -x {0.0 1.0 104 ------- null}
+ -t 0.13633799199319 -s 0 -d 1 -p poisson -e 210 -c 0 -i 105 -a 0 -x {0.0 1.0 105 ------- null}
+ -t 0.13633799199319 -s 0 -d 1 -p poisson -e 210 -c 0 -i 106 -a 0 -x {0.0 1.0 106 ------- null}
+ -t 0.13633799199319 -s 0 -d 1 -p poisson -e 210 -c 0 -i 107 -a 0 -x {0.0 1.0 107 ------- null}
+ -t 0.13633799199319 -s 0 -d 1 -p poisson -e 210 -c 0 -i 108 -a 0 -x {0.0 1.0 108 ------- null}
+ -t 0.13633799199319 -s 0 -d 1 -p poisson -e 210 -c 0 -i 109 -a 0 -x {0.0 1.0 109 ------- null}
+ -t 0.13633799199319 -s 0 -d 1 -p poisson -e 210 -c 0 -i 110 -a 0 -x {0.0 1.0 110 ------- null}
+ -t 0.13633799199319 -s 0 -d 1 -p poisson -e 30 -c 0 -i 111 -a 0 -x {0.0 1.0 111 ------- null}
r -t 0.137309327902801 -s 0 -d 1 -p poisson -e 210 -c 0 -i 54 -a 0 -x {0.0 1.0 54 ------- null}
r -t 0.137549327902801 -s 0 -d 1 -p poisson -e 30 -c 0 -i 55 -a 0 -x {0.0 1.0 55 ------- null}
- -t 0.137629327902801 -s 0 -d 1 -p poisson -e 210 -c 0 -i 62 -a 0 -x {0.0 1.0 62 ------- null}
h -t 0.137629327902801 -s 0 -d 1 -p poisson -e 210 -c 0 -i 62 -a 0 -x {0.0 1.0 -1 ------- null}
r -t 0.139229327902801 -s 0 -d 1 -p poisson -e 210 -c 0 -i 56 -a 0 -x {0.0 1.0 56 ------- null}
- -t 0.139309327902801 -s 0 -d 1 -p poisson -e 30 -c 0 -i 63 -a 0 -x {0.0 1.0 63 ------- null}
h -t 0.139309327902801 -s 0 -d 1 -p poisson -e 30 -c 0 -i 63 -a 0 -x {0.0 1.0 -1 ------- null}
- -t 0.139549327902801 -s 0 -d 1 -p poisson -e 210 -c 0 -i 64 -a 0 -x {0.0 1.0 64 ------- null}
h -t 0.139549327902801 -s 0 -d 1 -p poisson -e 210 -c 0 -i 64 -a 0 -x {0.0 1.0 -1 ------- null}
r -t 0.140909327902801 -s 0 -d 1 -p poisson -e 210 -c 0 -i 57 -a 0 -x {0.0 1.0 57 ------- null}
- -t 0.141229327902801 -s 0 -d 1 -p poisson -e 210 -c 0 -i 65 -a 0 -x {0.0 1.0 65 ------- null}
h -t 0.141229327902801 -s 0 -d 1 -p poisson -e 210 -c 0 -i 65 -a 0 -x {0.0 1.0 -1 ------- null}
r -t 0.142589327902801 -s 0 -d 1 -p poisson -e 210 -c 0 -i 58 -a 0 -x {0.0 1.0 58 ------- null}
- -t 0.142909327902801 -s 0 -d 1 -p poisson -e 210 -c 0 -i 66 -a 0 -x {0.0 1.0 66 ------- null}
h -t 0.142909327902801 -s 0 -d 1 -p poisson -e 210 -c 0 -i 66 -a 0 -x {0.0 1.0 -1 ------- null}
r -t 0.144269327902801 -s 0 -d 1 -p poisson -e 210 -c 0 -i 59 -a 0 -x {0.0 1.0 59 ------- null}
- -t 0.144589327902801 -s 0 -d 1 -p poisson -e 210 -c 0 -i 67 -a 0 -x {0.0 1.0 67 ------- null}
h -t 0.144589327902801 -s 0 -d 1 -p poisson -e 210 -c 0 -i 67 -a 0 -x {0.0 1.0 -1 ------- null}
r -t 0.145949327902801 -s 0 -d 1 -p poisson -e 210 -c 0 -i 60 -a 0 -x {0.0 1.0 60 ------- null}
- -t 0.146269327902801 -s 0 -d 1 -p poisson -e 210 -c 0 -i 68 -a 0 -x {0.0 1.0 68 ------- null}
h -t 0.146269327902801 -s 0 -d 1 -p poisson -e 210 -c 0 -i 68 -a 0 -x {0.0 1.0 -1 ------- null}
r -t 0.147629327902801 -s 0 -d 1 -p poisson -e 210 -c 0 -i 61 -a 0 -x {0.0 1.0 61 ------- null}