+ 0 0 1 poisson 210 ------- 0 0.0 1.0 0 0
- 0 0 1 poisson 210 ------- 0 0.0 1.0 0 0
+ 0 0 1 poisson 210 ------- 0 0.0 1.0 1 1
+ 0 0 1 poisson 210 ------- 0 0.0 1.0 2 2
+ 0 0 1 poisson 210 ------- 0 0.0 1.0 3 3
+ 0 0 1 poisson 210 ------- 0 0.0 1.0 4 4
+ 0 0 1 poisson 210 ------- 0 0.0 1.0 5 5
+ 0 0 1 poisson 210 ------- 0 0.0 1.0 6 6
+ 0 0 1 poisson 30 ------- 0 0.0 1.0 7 7
- 0.00168 0 1 poisson 210 ------- 0 0.0 1.0 1 1
- 0.00336 0 1 poisson 210 ------- 0 0.0 1.0 2 2
- 0.00504 0 1 poisson 210 ------- 0 0.0 1.0 3 3
- 0.00672 0 1 poisson 210 ------- 0 0.0 1.0 4 4
- 0.0084 0 1 poisson 210 ------- 0 0.0 1.0 5 5
- 0.01008 0 1 poisson 210 ------- 0 0.0 1.0 6 6
r 0.01168 0 1 poisson 210 ------- 0 0.0 1.0 0 0
- 0.01176 0 1 poisson 30 ------- 0 0.0 1.0 7 7
r 0.01336 0 1 poisson 210 ------- 0 0.0 1.0 1 1
r 0.01504 0 1 poisson 210 ------- 0 0.0 1.0 2 2
r 0.01672 0 1 poisson 210 ------- 0 0.0 1.0 3 3
r 0.0184 0 1 poisson 210 ------- 0 0.0 1.0 4 4
r 0.02008 0 1 poisson 210 ------- 0 0.0 1.0 5 5
r 0.02176 0 1 poisson 210 ------- 0 0.0 1.0 6 6
r 0.022 0 1 poisson 30 ------- 0 0.0 1.0 7 7
+ 0.095854 0 1 poisson 210 ------- 0 0.0 1.0 8 8
- 0.095854 0 1 poisson 210 ------- 0 0.0 1.0 8 8
+ 0.095854 0 1 poisson 210 ------- 0 0.0 1.0 9 9
+ 0.095854 0 1 poisson 210 ------- 0 0.0 1.0 10 10
+ 0.095854 0 1 poisson 210 ------- 0 0.0 1.0 11 11
+ 0.095854 0 1 poisson 210 ------- 0 0.0 1.0 12 12
+ 0.095854 0 1 poisson 210 ------- 0 0.0 1.0 13 13
+ 0.095854 0 1 poisson 210 ------- 0 0.0 1.0 14 14
+ 0.095854 0 1 poisson 30 ------- 0 0.0 1.0 15 15
- 0.097534 0 1 poisson 210 ------- 0 0.0 1.0 9 9
- 0.099214 0 1 poisson 210 ------- 0 0.0 1.0 10 10
- 0.100894 0 1 poisson 210 ------- 0 0.0 1.0 11 11
- 0.102574 0 1 poisson 210 ------- 0 0.0 1.0 12 12
+ 0.1029 0 1 poisson 210 ------- 0 0.0 1.0 16 16
+ 0.1029 0 1 poisson 210 ------- 0 0.0 1.0 17 17
+ 0.1029 0 1 poisson 210 ------- 0 0.0 1.0 18 18
+ 0.1029 0 1 poisson 210 ------- 0 0.0 1.0 19 19
+ 0.1029 0 1 poisson 210 ------- 0 0.0 1.0 20 20
+ 0.1029 0 1 poisson 210 ------- 0 0.0 1.0 21 21
+ 0.1029 0 1 poisson 210 ------- 0 0.0 1.0 22 22
+ 0.1029 0 1 poisson 30 ------- 0 0.0 1.0 23 23
- 0.104254 0 1 poisson 210 ------- 0 0.0 1.0 13 13
- 0.105934 0 1 poisson 210 ------- 0 0.0 1.0 14 14
r 0.107534 0 1 poisson 210 ------- 0 0.0 1.0 8 8
- 0.107614 0 1 poisson 30 ------- 0 0.0 1.0 15 15
- 0.107854 0 1 poisson 210 ------- 0 0.0 1.0 16 16
r 0.109214 0 1 poisson 210 ------- 0 0.0 1.0 9 9
- 0.109534 0 1 poisson 210 ------- 0 0.0 1.0 17 17
r 0.110894 0 1 poisson 210 ------- 0 0.0 1.0 10 10
- 0.111214 0 1 poisson 210 ------- 0 0.0 1.0 18 18
r 0.112574 0 1 poisson 210 ------- 0 0.0 1.0 11 11
- 0.112894 0 1 poisson 210 ------- 0 0.0 1.0 19 19
r 0.114254 0 1 poisson 210 ------- 0 0.0 1.0 12 12
- 0.114574 0 1 poisson 210 ------- 0 0.0 1.0 20 20
r 0.115934 0 1 poisson 210 ------- 0 0.0 1.0 13 13
- 0.116254 0 1 poisson 210 ------- 0 0.0 1.0 21 21
r 0.117614 0 1 poisson 210 ------- 0 0.0 1.0 14 14
r 0.117854 0 1 poisson 30 ------- 0 0.0 1.0 15 15
- 0.117934 0 1 poisson 210 ------- 0 0.0 1.0 22 22
r 0.119534 0 1 poisson 210 ------- 0 0.0 1.0 16 16
- 0.119614 0 1 poisson 30 ------- 0 0.0 1.0 23 23
r 0.121214 0 1 poisson 210 ------- 0 0.0 1.0 17 17
r 0.122894 0 1 poisson 210 ------- 0 0.0 1.0 18 18
r 0.124574 0 1 poisson 210 ------- 0 0.0 1.0 19 19
r 0.126254 0 1 poisson 210 ------- 0 0.0 1.0 20 20
r 0.127934 0 1 poisson 210 ------- 0 0.0 1.0 21 21
r 0.129614 0 1 poisson 210 ------- 0 0.0 1.0 22 22
r 0.129854 0 1 poisson 30 ------- 0 0.0 1.0 23 23
+ 0.15395 0 1 poisson 210 ------- 0 0.0 1.0 24 24
- 0.15395 0 1 poisson 210 ------- 0 0.0 1.0 24 24
+ 0.15395 0 1 poisson 210 ------- 0 0.0 1.0 25 25
+ 0.15395 0 1 poisson 210 ------- 0 0.0 1.0 26 26
+ 0.15395 0 1 poisson 210 ------- 0 0.0 1.0 27 27
+ 0.15395 0 1 poisson 210 ------- 0 0.0 1.0 28 28
+ 0.15395 0 1 poisson 210 ------- 0 0.0 1.0 29 29
+ 0.15395 0 1 poisson 210 ------- 0 0.0 1.0 30 30
+ 0.15395 0 1 poisson 30 ------- 0 0.0 1.0 31 31
- 0.15563 0 1 poisson 210 ------- 0 0.0 1.0 25 25
- 0.15731 0 1 poisson 210 ------- 0 0.0 1.0 26 26
- 0.15899 0 1 poisson 210 ------- 0 0.0 1.0 27 27
- 0.16067 0 1 poisson 210 ------- 0 0.0 1.0 28 28
- 0.16235 0 1 poisson 210 ------- 0 0.0 1.0 29 29
- 0.16403 0 1 poisson 210 ------- 0 0.0 1.0 30 30
r 0.16563 0 1 poisson 210 ------- 0 0.0 1.0 24 24
- 0.16571 0 1 poisson 30 ------- 0 0.0 1.0 31 31
r 0.16731 0 1 poisson 210 ------- 0 0.0 1.0 25 25
r 0.16899 0 1 poisson 210 ------- 0 0.0 1.0 26 26
r 0.17067 0 1 poisson 210 ------- 0 0.0 1.0 27 27
r 0.17235 0 1 poisson 210 ------- 0 0.0 1.0 28 28
r 0.17403 0 1 poisson 210 ------- 0 0.0 1.0 29 29
r 0.17571 0 1 poisson 210 ------- 0 0.0 1.0 30 30
r 0.17595 0 1 poisson 30 ------- 0 0.0 1.0 31 31
+ 0.183099 0 1 poisson 210 ------- 0 0.0 1.0 32 32
- 0.183099 0 1 poisson 210 ------- 0 0.0 1.0 32 32
+ 0.183099 0 1 poisson 210 ------- 0 0.0 1.0 33 33
+ 0.183099 0 1 poisson 210 ------- 0 0.0 1.0 34 34
+ 0.183099 0 1 poisson 210 ------- 0 0.0 1.0 35 35
+ 0.183099 0 1 poisson 210 ------- 0 0.0 1.0 36 36
+ 0.183099 0 1 poisson 210 ------- 0 0.0 1.0 37 37
+ 0.183099 0 1 poisson 210 ------- 0 0.0 1.0 38 38
+ 0.183099 0 1 poisson 30 ------- 0 0.0 1.0 39 39
- 0.184779 0 1 poisson 210 ------- 0 0.0 1.0 33 33
- 0.186459 0 1 poisson 210 ------- 0 0.0 1.0 34 34
- 0.188139 0 1 poisson 210 ------- 0 0.0 1.0 35 35
- 0.189819 0 1 poisson 210 ------- 0 0.0 1.0 36 36
- 0.191499 0 1 poisson 210 ------- 0 0.0 1.0 37 37
+ 0.192918 0 1 poisson 210 ------- 0 0.0 1.0 40 40
+ 0.192918 0 1 poisson 210 ------- 0 0.0 1.0 41 41
+ 0.192918 0 1 poisson 210 ------- 0 0.0 1.0 42 42
+ 0.192918 0 1 poisson 210 ------- 0 0.0 1.0 43 43
+ 0.192918 0 1 poisson 210 ------- 0 0.0 1.0 44 44
+ 0.192918 0 1 poisson 210 ------- 0 0.0 1.0 45 45
+ 0.192918 0 1 poisson 210 ------- 0 0.0 1.0 46 46
+ 0.192918 0 1 poisson 30 ------- 0 0.0 1.0 47 47
- 0.193179 0 1 poisson 210 ------- 0 0.0 1.0 38 38
r 0.194779 0 1 poisson 210 ------- 0 0.0 1.0 32 32
- 0.194859 0 1 poisson 30 ------- 0 0.0 1.0 39 39
- 0.195099 0 1 poisson 210 ------- 0 0.0 1.0 40 40
+ 0.195609 0 1 poisson 210 ------- 0 0.0 1.0 48 48
+ 0.195609 0 1 poisson 210 ------- 0 0.0 1.0 49 49
+ 0.195609 0 1 poisson 210 ------- 0 0.0 1.0 50 50
+ 0.195609 0 1 poisson 210 ------- 0 0.0 1.0 51 51
+ 0.195609 0 1 poisson 210 ------- 0 0.0 1.0 52 52
+ 0.195609 0 1 poisson 210 ------- 0 0.0 1.0 53 53
+ 0.195609 0 1 poisson 210 ------- 0 0.0 1.0 54 54
+ 0.195609 0 1 poisson 30 ------- 0 0.0 1.0 55 55
r 0.196459 0 1 poisson 210 ------- 0 0.0 1.0 33 33
- 0.196779 0 1 poisson 210 ------- 0 0.0 1.0 41 41
r 0.198139 0 1 poisson 210 ------- 0 0.0 1.0 34 34
- 0.198459 0 1 poisson 210 ------- 0 0.0 1.0 42 42
r 0.199819 0 1 poisson 210 ------- 0 0.0 1.0 35 35
- 0.200139 0 1 poisson 210 ------- 0 0.0 1.0 43 43
r 0.201499 0 1 poisson 210 ------- 0 0.0 1.0 36 36
- 0.201819 0 1 poisson 210 ------- 0 0.0 1.0 44 44
r 0.203179 0 1 poisson 210 ------- 0 0.0 1.0 37 37
- 0.203499 0 1 poisson 210 ------- 0 0.0 1.0 45 45
r 0.204859 0 1 poisson 210 ------- 0 0.0 1.0 38 38
r 0.205099 0 1 poisson 30 ------- 0 0.0 1.0 39 39
- 0.205179 0 1 poisson 210 ------- 0 0.0 1.0 46 46
r 0.206779 0 1 poisson 210 ------- 0 0.0 1.0 40 40
- 0.206859 0 1 poisson 30 ------- 0 0.0 1.0 47 47
- 0.207099 0 1 poisson 210 ------- 0 0.0 1.0 48 48
r 0.208459 0 1 poisson 210 ------- 0 0.0 1.0 41 41
- 0.208779 0 1 poisson 210 ------- 0 0.0 1.0 49 49
+ 0.209549 0 1 poisson 210 ------- 0 0.0 1.0 56 56
+ 0.209549 0 1 poisson 210 ------- 0 0.0 1.0 57 57
+ 0.209549 0 1 poisson 210 ------- 0 0.0 1.0 58 58
+ 0.209549 0 1 poisson 210 ------- 0 0.0 1.0 59 59
+ 0.209549 0 1 poisson 210 ------- 0 0.0 1.0 60 60
+ 0.209549 0 1 poisson 210 ------- 0 0.0 1.0 61 61
+ 0.209549 0 1 poisson 210 ------- 0 0.0 1.0 62 62
+ 0.209549 0 1 poisson 30 ------- 0 0.0 1.0 63 63
r 0.210139 0 1 poisson 210 ------- 0 0.0 1.0 42 42
- 0.210459 0 1 poisson 210 ------- 0 0.0 1.0 50 50
r 0.211819 0 1 poisson 210 ------- 0 0.0 1.0 43 43
+ 0.211982 0 1 poisson 210 ------- 0 0.0 1.0 64 64
+ 0.211982 0 1 poisson 210 ------- 0 0.0 1.0 65 65
+ 0.211982 0 1 poisson 210 ------- 0 0.0 1.0 66 66
+ 0.211982 0 1 poisson 210 ------- 0 0.0 1.0 67 67
+ 0.211982 0 1 poisson 210 ------- 0 0.0 1.0 68 68
+ 0.211982 0 1 poisson 210 ------- 0 0.0 1.0 69 69
+ 0.211982 0 1 poisson 210 ------- 0 0.0 1.0 70 70
+ 0.211982 0 1 poisson 30 ------- 0 0.0 1.0 71 71
- 0.212139 0 1 poisson 210 ------- 0 0.0 1.0 51 51
r 0.213499 0 1 poisson 210 ------- 0 0.0 1.0 44 44
- 0.213819 0 1 poisson 210 ------- 0 0.0 1.0 52 52
r 0.215179 0 1 poisson 210 ------- 0 0.0 1.0 45 45
- 0.215499 0 1 poisson 210 ------- 0 0.0 1.0 53 53
r 0.216859 0 1 poisson 210 ------- 0 0.0 1.0 46 46
r 0.217099 0 1 poisson 30 ------- 0 0.0 1.0 47 47
- 0.217179 0 1 poisson 210 ------- 0 0.0 1.0 54 54
r 0.218779 0 1 poisson 210 ------- 0 0.0 1.0 48 48
- 0.218859 0 1 poisson 30 ------- 0 0.0 1.0 55 55
- 0.219099 0 1 poisson 210 ------- 0 0.0 1.0 56 56
r 0.220459 0 1 poisson 210 ------- 0 0.0 1.0 49 49
- 0.220779 0 1 poisson 210 ------- 0 0.0 1.0 57 57
r 0.222139 0 1 poisson 210 ------- 0 0.0 1.0 50 50
- 0.222459 0 1 poisson 210 ------- 0 0.0 1.0 58 58
r 0.223819 0 1 poisson 210 ------- 0 0.0 1.0 51 51
- 0.224139 0 1 poisson 210 ------- 0 0.0 1.0 59 59
r 0.225499 0 1 poisson 210 ------- 0 0.0 1.0 52 52
- 0.225819 0 1 poisson 210 ------- 0 0.0 1.0 60 60
r 0.227179 0 1 poisson 210 ------- 0 0.0 1.0 53 53
- 0.227499 0 1 poisson 210 ------- 0 0.0 1.0 61 61
r 0.228859 0 1 poisson 210 ------- 0 0.0 1.0 54 54
r 0.229099 0 1 poisson 30 ------- 0 0.0 1.0 55 55
- 0.229179 0 1 poisson 210 ------- 0 0.0 1.0 62 62
+ 0.22938 0 1 poisson 210 ------- 0 0.0 1.0 72 72
+ 0.22938 0 1 poisson 210 ------- 0 0.0 1.0 73 73
+ 0.22938 0 1 poisson 210 ------- 0 0.0 1.0 74 74
+ 0.22938 0 1 poisson 210 ------- 0 0.0 1.0 75 75
+ 0.22938 0 1 poisson 210 ------- 0 0.0 1.0 76 76
+ 0.22938 0 1 poisson 210 ------- 0 0.0 1.0 77 77
+ 0.22938 0 1 poisson 210 ------- 0 0.0 1.0 78 78
+ 0.22938 0 1 poisson 30 ------- 0 0.0 1.0 79 79
r 0.230779 0 1 poisson 210 ------- 0 0.0 1.0 56 56
- 0.230859 0 1 poisson 30 ------- 0 0.0 1.0 63 63
- 0.231099 0 1 poisson 210 ------- 0 0.0 1.0 64 64
r 0.232459 0 1 poisson 210 ------- 0 0.0 1.0 57 57
- 0.232779 0 1 poisson 210 ------- 0 0.0 1.0 65 65
r 0.234139 0 1 poisson 210 ------- 0 0.0 1.0 58 58
- 0.234459 0 1 poisson 210 ------- 0 0.0 1.0 66 66
+ 0.234757 0 1 poisson 210 ------- 0 0.0 1.0 80 80
+ 0.234757 0 1 poisson 210 ------- 0 0.0 1.0 81 81
+ 0.234757 0 1 poisson 210 ------- 0 0.0 1.0 82 82
+ 0.234757 0 1 poisson 210 ------- 0 0.0 1.0 83 83
+ 0.234757 0 1 poisson 210 ------- 0 0.0 1.0 84 84
+ 0.234757 0 1 poisson 210 ------- 0 0.0 1.0 85 85
+ 0.234757 0 1 poisson 210 ------- 0 0.0 1.0 86 86
+ 0.234757 0 1 poisson 30 ------- 0 0.0 1.0 87 87
r 0.235819 0 1 poisson 210 ------- 0 0.0 1.0 59 59
- 0.236139 0 1 poisson 210 ------- 0 0.0 1.0 67 67
r 0.237499 0 1 poisson 210 ------- 0 0.0 1.0 60 60
- 0.237819 0 1 poisson 210 ------- 0 0.0 1.0 68 68
r 0.239179 0 1 poisson 210 ------- 0 0.0 1.0 61 61
- 0.239499 0 1 poisson 210 ------- 0 0.0 1.0 69 69
r 0.240859 0 1 poisson 210 ------- 0 0.0 1.0 62 62
r 0.241099 0 1 poisson 30 ------- 0 0.0 1.0 63 63
- 0.241179 0 1 poisson 210 ------- 0 0.0 1.0 70 70
r 0.242779 0 1 poisson 210 ------- 0 0.0 1.0 64 64
- 0.242859 0 1 poisson 30 ------- 0 0.0 1.0 71 71
- 0.243099 0 1 poisson 210 ------- 0 0.0 1.0 72 72
r 0.244459 0 1 poisson 210 ------- 0 0.0 1.0 65 65
- 0.244779 0 1 poisson 210 ------- 0 0.0 1.0 73 73
r 0.246139 0 1 poisson 210 ------- 0 0.0 1.0 66 66
- 0.246459 0 1 poisson 210 ------- 0 0.0 1.0 74 74
r 0.247819 0 1 poisson 210 ------- 0 0.0 1.0 67 67
- 0.248139 0 1 poisson 210 ------- 0 0.0 1.0 75 75
+ 0.248847 0 1 poisson 210 ------- 0 0.0 1.0 88 88
+ 0.248847 0 1 poisson 210 ------- 0 0.0 1.0 89 89
+ 0.248847 0 1 poisson 210 ------- 0 0.0 1.0 90 90
+ 0.248847 0 1 poisson 210 ------- 0 0.0 1.0 91 91
+ 0.248847 0 1 poisson 210 ------- 0 0.0 1.0 92 92
+ 0.248847 0 1 poisson 210 ------- 0 0.0 1.0 93 93
+ 0.248847 0 1 poisson 210 ------- 0 0.0 1.0 94 94
+ 0.248847 0 1 poisson 30 ------- 0 0.0 1.0 95 95
r 0.249499 0 1 poisson 210 ------- 0 0.0 1.0 68 68
- 0.249819 0 1 poisson 210 ------- 0 0.0 1.0 76 76
+ 0.250992 0 1 poisson 210 ------- 0 0.0 1.0 96 96
+ 0.250992 0 1 poisson 210 ------- 0 0.0 1.0 97 97
+ 0.250992 0 1 poisson 210 ------- 0 0.0 1.0 98 98
+ 0.250992 0 1 poisson 210 ------- 0 0.0 1.0 99 99
+ 0.250992 0 1 poisson 210 ------- 0 0.0 1.0 100 100
+ 0.250992 0 1 poisson 210 ------- 0 0.0 1.0 101 101
+ 0.250992 0 1 poisson 210 ------- 0 0.0 1.0 102 102
+ 0.250992 0 1 poisson 30 ------- 0 0.0 1.0 103 103
r 0.251179 0 1 poisson 210 ------- 0 0.0 1.0 69 69
- 0.251499 0 1 poisson 210 ------- 0 0.0 1.0 77 77
r 0.252859 0 1 poisson 210 ------- 0 0.0 1.0 70 70
r 0.253099 0 1 poisson 30 ------- 0 0.0 1.0 71 71
- 0.253179 0 1 poisson 210 ------- 0 0.0 1.0 78 78
r 0.254779 0 1 poisson 210 ------- 0 0.0 1.0 72 72
- 0.254859 0 1 poisson 30 ------- 0 0.0 1.0 79 79
- 0.255099 0 1 poisson 210 ------- 0 0.0 1.0 80 80
r 0.256459 0 1 poisson 210 ------- 0 0.0 1.0 73 73
- 0.256779 0 1 poisson 210 ------- 0 0.0 1.0 81 81
r 0.258139 0 1 poisson 210 ------- 0 0.0 1.0 74 74
- 0.258459 0 1 poisson 210 ------- 0 0.0 1.0 82 82
r 0.259819 0 1 poisson 210 ------- 0 0.0 1.0 75 75
- 0.260139 0 1 poisson 210 ------- 0 0.0 1.0 83 83
r 0.261499 0 1 poisson 210 ------- 0 0.0 1.0 76 76
- 0.261819 0 1 poisson 210 ------- 0 0.0 1.0 84 84
r 0.263179 0 1 poisson 210 ------- 0 0.0 1.0 77 77
- 0.263499 0 1 poisson 210 ------- 0 0.0 1.0 85 85
r 0.264859 0 1 poisson 210 ------- 0 0.0 1.0 78 78
r 0.265099 0 1 poisson 30 ------- 0 0.0 1.0 79 79
- 0.265179 0 1 poisson 210 ------- 0 0.0 1.0 86 86
r 0.266779 0 1 poisson 210 ------- 0 0.0 1.0 80 80
- 0.266859 0 1 poisson 30 ------- 0 0.0 1.0 87 87
- 0.267099 0 1 poisson 210 ------- 0 0.0 1.0 88 88
r 0.268459 0 1 poisson 210 ------- 0 0.0 1.0 81 81
- 0.268779 0 1 poisson 210 ------- 0 0.0 1.0 89 89
r 0.270139 0 1 poisson 210 ------- 0 0.0 1.0 82 82
- 0.270459 0 1 poisson 210 ------- 0 0.0 1.0 90 90
r 0.271819 0 1 poisson 210 ------- 0 0.0 1.0 83 83
- 0.272139 0 1 poisson 210 ------- 0 0.0 1.0 91 91
+ 0.272676 0 1 poisson 210 ------- 0 0.0 1.0 104 104
+ 0.272676 0 1 poisson 210 ------- 0 0.0 1.0 105 105
+ 0.272676 0 1 poisson 210 ------- 0 0.0 1.0 106 106
+ 0.272676 0 1 poisson 210 ------- 0 0.0 1.0 107 107
+ 0.272676 0 1 poisson 210 ------- 0 0.0 1.0 108 108
+ 0.272676 0 1 poisson 210 ------- 0 0.0 1.0 109 109
+ 0.272676 0 1 poisson 210 ------- 0 0.0 1.0 110 110
+ 0.272676 0 1 poisson 30 ------- 0 0.0 1.0 111 111
r 0.273499 0 1 poisson 210 ------- 0 0.0 1.0 84 84
- 0.273819 0 1 poisson 210 ------- 0 0.0 1.0 92 92
r 0.275179 0 1 poisson 210 ------- 0 0.0 1.0 85 85
- 0.275499 0 1 poisson 210 ------- 0 0.0 1.0 93 93
r 0.276859 0 1 poisson 210 ------- 0 0.0 1.0 86 86
r 0.277099 0 1 poisson 30 ------- 0 0.0 1.0 87 87
- 0.277179 0 1 poisson 210 ------- 0 0.0 1.0 94 94
r 0.278779 0 1 poisson 210 ------- 0 0.0 1.0 88 88
- 0.278859 0 1 poisson 30 ------- 0 0.0 1.0 95 95
- 0.279099 0 1 poisson 210 ------- 0 0.0 1.0 96 96
r 0.280459 0 1 poisson 210 ------- 0 0.0 1.0 89 89
- 0.280779 0 1 poisson 210 ------- 0 0.0 1.0 97 97
r 0.282139 0 1 poisson 210 ------- 0 0.0 1.0 90 90
- 0.282459 0 1 poisson 210 ------- 0 0.0 1.0 98 98
r 0.283819 0 1 poisson 210 ------- 0 0.0 1.0 91 91
- 0.284139 0 1 poisson 210 ------- 0 0.0 1.0 99 99
r 0.285499 0 1 poisson 210 ------- 0 0.0 1.0 92 92
- 0.285819 0 1 poisson 210 ------- 0 0.0 1.0 100 100
r 0.287179 0 1 poisson 210 ------- 0 0.0 1.0 93 93
- 0.287499 0 1 poisson 210 ------- 0 0.0 1.0 101 101
r 0.288859 0 1 poisson 210 ------- 0 0.0 1.0 94 94
r 0.289099 0 1 poisson 30 ------- 0 0.0 1.0 95 95
- 0.289179 0 1 poisson 210 ------- 0 0.0 1.0 102 102
r 0.290779 0 1 poisson 210 ------- 0 0.0 1.0 96 96
- 0.290859 0 1 poisson 30 ------- 0 0.0 1.0 103 103
- 0.291099 0 1 poisson 210 ------- 0 0.0 1.0 104 104
r 0.292459 0 1 poisson 210 ------- 0 0.0 1.0 97 97
- 0.292779 0 1 poisson 210 ------- 0 0.0 1.0 105 105
r 0.294139 0 1 poisson 210 ------- 0 0.0 1.0 98 98
- 0.294459 0 1 poisson 210 ------- 0 0.0 1.0 106 106
r 0.295819 0 1 poisson 210 ------- 0 0.0 1.0 99 99
- 0.296139 0 1 poisson 210 ------- 0 0.0 1.0 107 107
r 0.297499 0 1 poisson 210 ------- 0 0.0 1.0 100 100
- 0.297819 0 1 poisson 210 ------- 0 0.0 1.0 108 108
r 0.299179 0 1 poisson 210 ------- 0 0.0 1.0 101 101
- 0.299499 0 1 poisson 210 ------- 0 0.0 1.0 109 109
r 0.300859 0 1 poisson 210 ------- 0 0.0 1.0 102 102
r 0.301099 0 1 poisson 30 ------- 0 0.0 1.0 103 103
- 0.301179 0 1 poisson 210 ------- 0 0.0 1.0 110 110
r 0.302779 0 1 poisson 210 ------- 0 0.0 1.0 104 104
- 0.302859 0 1 poisson 30 ------- 0 0.0 1.0 111 111
r 0.304459 0 1 poisson 210 ------- 0 0.0 1.0 105 105
r 0.306139 0 1 poisson 210 ------- 0 0.0 1.0 106 106
r 0.307819 0 1 poisson 210 ------- 0 0.0 1.0 107 107
r 0.309499 0 1 poisson 210 ------- 0 0.0 1.0 108 108
+ 0.310492 0 1 poisson 210 ------- 0 0.0 1.0 112 112
- 0.310492 0 1 poisson 210 ------- 0 0.0 1.0 112 112
+ 0.310492 0 1 poisson 210 ------- 0 0.0 1.0 113 113
+ 0.310492 0 1 poisson 210 ------- 0 0.0 1.0 114 114
+ 0.310492 0 1 poisson 210 ------- 0 0.0 1.0 115 115
+ 0.310492 0 1 poisson 210 ------- 0 0.0 1.0 116 116
+ 0.310492 0 1 poisson 210 ------- 0 0.0 1.0 117 117
+ 0.310492 0 1 poisson 210 ------- 0 0.0 1.0 118 118
+ 0.310492 0 1 poisson 30 ------- 0 0.0 1.0 119 119
r 0.311179 0 1 poisson 210 ------- 0 0.0 1.0 109 109
- 0.312172 0 1 poisson 210 ------- 0 0.0 1.0 113 113
r 0.312859 0 1 poisson 210 ------- 0 0.0 1.0 110 110
r 0.313099 0 1 poisson 30 ------- 0 0.0 1.0 111 111
- 0.313852 0 1 poisson 210 ------- 0 0.0 1.0 114 114
- 0.315532 0 1 poisson 210 ------- 0 0.0 1.0 115 115
+ 0.315846 0 1 poisson 210 ------- 0 0.0 1.0 120 120
+ 0.315846 0 1 poisson 210 ------- 0 0.0 1.0 121 121
+ 0.315846 0 1 poisson 210 ------- 0 0.0 1.0 122 122
+ 0.315846 0 1 poisson 210 ------- 0 0.0 1.0 123 123
+ 0.315846 0 1 poisson 210 ------- 0 0.0 1.0 124 124
+ 0.315846 0 1 poisson 210 ------- 0 0.0 1.0 125 125
+ 0.315846 0 1 poisson 210 ------- 0 0.0 1.0 126 126
+ 0.315846 0 1 poisson 30 ------- 0 0.0 1.0 127 127
- 0.317212 0 1 poisson 210 ------- 0 0.0 1.0 116 116
- 0.318892 0 1 poisson 210 ------- 0 0.0 1.0 117 117
- 0.320572 0 1 poisson 210 ------- 0 0.0 1.0 118 118
r 0.322172 0 1 poisson 210 ------- 0 0.0 1.0 112 112
- 0.322252 0 1 poisson 30 ------- 0 0.0 1.0 119 119
- 0.322492 0 1 poisson 210 ------- 0 0.0 1.0 120 120
r 0.323852 0 1 poisson 210 ------- 0 0.0 1.0 113 113
- 0.324172 0 1 poisson 210 ------- 0 0.0 1.0 121 121
r 0.325532 0 1 poisson 210 ------- 0 0.0 1.0 114 114
- 0.325852 0 1 poisson 210 ------- 0 0.0 1.0 122 122
r 0.327212 0 1 poisson 210 ------- 0 0.0 1.0 115 115
- 0.327532 0 1 poisson 210 ------- 0 0.0 1.0 123 123
r 0.328892 0 1 poisson 210 ------- 0 0.0 1.0 116 116
- 0.329212 0 1 poisson 210 ------- 0 0.0 1.0 124 124
r 0.330572 0 1 poisson 210 ------- 0 0.0 1.0 117 117
- 0.330892 0 1 poisson 210 ------- 0 0.0 1.0 125 125
r 0.332252 0 1 poisson 210 ------- 0 0.0 1.0 118 118
r 0.332492 0 1 poisson 30 ------- 0 0.0 1.0 119 119
- 0.332572 0 1 poisson 210 ------- 0 0.0 1.0 126 126
r 0.334172 0 1 poisson 210 ------- 0 0.0 1.0 120 120
- 0.334252 0 1 poisson 30 ------- 0 0.0 1.0 127 127
r 0.335852 0 1 poisson 210 ------- 0 0.0 1.0 121 121
r 0.337532 0 1 poisson 210 ------- 0 0.0 1.0 122 122
r 0.339212 0 1 poisson 210 ------- 0 0.0 1.0 123 123
r 0.340892 0 1 poisson 210 ------- 0 0.0 1.0 124 124
+ 0.341925 0 1 poisson 210 ------- 0 0.0 1.0 128 128
- 0.341925 0 1 poisson 210 ------- 0 0.0 1.0 128 128
+ 0.341925 0 1 poisson 210 ------- 0 0.0 1.0 129 129
+ 0.341925 0 1 poisson 210 ------- 0 0.0 1.0 130 130
+ 0.341925 0 1 poisson 210 ------- 0 0.0 1.0 131 131
+ 0.341925 0 1 poisson 210 ------- 0 0.0 1.0 132 132
+ 0.341925 0 1 poisson 210 ------- 0 0.0 1.0 133 133
+ 0.341925 0 1 poisson 210 ------- 0 0.0 1.0 134 134
+ 0.341925 0 1 poisson 30 ------- 0 0.0 1.0 135 135
r 0.342572 0 1 poisson 210 ------- 0 0.0 1.0 125 125
- 0.343605 0 1 poisson 210 ------- 0 0.0 1.0 129 129
+ 0.343739 0 1 poisson 210 ------- 0 0.0 1.0 136 136
+ 0.343739 0 1 poisson 210 ------- 0 0.0 1.0 137 137
+ 0.343739 0 1 poisson 210 ------- 0 0.0 1.0 138 138
+ 0.343739 0 1 poisson 210 ------- 0 0.0 1.0 139 139
+ 0.343739 0 1 poisson 210 ------- 0 0.0 1.0 140 140
+ 0.343739 0 1 poisson 210 ------- 0 0.0 1.0 141 141
+ 0.343739 0 1 poisson 210 ------- 0 0.0 1.0 142 142
+ 0.343739 0 1 poisson 30 ------- 0 0.0 1.0 143 143
r 0.344252 0 1 poisson 210 ------- 0 0.0 1.0 126 126
r 0.344492 0 1 poisson 30 ------- 0 0.0 1.0 127 127
- 0.345285 0 1 poisson 210 ------- 0 0.0 1.0 130 130
- 0.346965 0 1 poisson 210 ------- 0 0.0 1.0 131 131
- 0.348645 0 1 poisson 210 ------- 0 0.0 1.0 132 132
- 0.350325 0 1 poisson 210 ------- 0 0.0 1.0 133 133
- 0.352005 0 1 poisson 210 ------- 0 0.0 1.0 134 134
r 0.353605 0 1 poisson 210 ------- 0 0.0 1.0 128 128
- 0.353685 0 1 poisson 30 ------- 0 0.0 1.0 135 135
- 0.353925 0 1 poisson 210 ------- 0 0.0 1.0 136 136
+ 0.354045 0 1 poisson 210 ------- 0 0.0 1.0 144 144
+ 0.354045 0 1 poisson 210 ------- 0 0.0 1.0 145 145
+ 0.354045 0 1 poisson 210 ------- 0 0.0 1.0 146 146
+ 0.354045 0 1 poisson 210 ------- 0 0.0 1.0 147 147
+ 0.354045 0 1 poisson 210 ------- 0 0.0 1.0 148 148
+ 0.354045 0 1 poisson 210 ------- 0 0.0 1.0 149 149
+ 0.354045 0 1 poisson 210 ------- 0 0.0 1.0 150 150
+ 0.354045 0 1 poisson 30 ------- 0 0.0 1.0 151 151
r 0.355285 0 1 poisson 210 ------- 0 0.0 1.0 129 129
- 0.355605 0 1 poisson 210 ------- 0 0.0 1.0 137 137
r 0.356965 0 1 poisson 210 ------- 0 0.0 1.0 130 130
- 0.357285 0 1 poisson 210 ------- 0 0.0 1.0 138 138
r 0.358645 0 1 poisson 210 ------- 0 0.0 1.0 131 131
- 0.358965 0 1 poisson 210 ------- 0 0.0 1.0 139 139
r 0.360325 0 1 poisson 210 ------- 0 0.0 1.0 132 132
- 0.360645 0 1 poisson 210 ------- 0 0.0 1.0 140 140
r 0.362005 0 1 poisson 210 ------- 0 0.0 1.0 133 133
- 0.362325 0 1 poisson 210 ------- 0 0.0 1.0 141 141
r 0.363685 0 1 poisson 210 ------- 0 0.0 1.0 134 134
r 0.363925 0 1 poisson 30 ------- 0 0.0 1.0 135 135
- 0.364005 0 1 poisson 210 ------- 0 0.0 1.0 142 142
r 0.365605 0 1 poisson 210 ------- 0 0.0 1.0 136 136
- 0.365685 0 1 poisson 30 ------- 0 0.0 1.0 143 143
- 0.365925 0 1 poisson 210 ------- 0 0.0 1.0 144 144
r 0.367285 0 1 poisson 210 ------- 0 0.0 1.0 137 137
- 0.367605 0 1 poisson 210 ------- 0 0.0 1.0 145 145
r 0.368965 0 1 poisson 210 ------- 0 0.0 1.0 138 138
- 0.369285 0 1 poisson 210 ------- 0 0.0 1.0 146 146
r 0.370645 0 1 poisson 210 ------- 0 0.0 1.0 139 139
- 0.370965 0 1 poisson 210 ------- 0 0.0 1.0 147 147
r 0.372325 0 1 poisson 210 ------- 0 0.0 1.0 140 140
- 0.372645 0 1 poisson 210 ------- 0 0.0 1.0 148 148
r 0.374005 0 1 poisson 210 ------- 0 0.0 1.0 141 141
- 0.374325 0 1 poisson 210 ------- 0 0.0 1.0 149 149
+ 0.374974 0 1 poisson 210 ------- 0 0.0 1.0 152 152
+ 0.374974 0 1 poisson 210 ------- 0 0.0 1.0 153 153
+ 0.374974 0 1 poisson 210 ------- 0 0.0 1.0 154 154
+ 0.374974 0 1 poisson 210 ------- 0 0.0 1.0 155 155
+ 0.374974 0 1 poisson 210 ------- 0 0.0 1.0 156 156
+ 0.374974 0 1 poisson 210 ------- 0 0.0 1.0 157 157
+ 0.374974 0 1 poisson 210 ------- 0 0.0 1.0 158 158
+ 0.374974 0 1 poisson 30 ------- 0 0.0 1.0 159 159
r 0.375685 0 1 poisson 210 ------- 0 0.0 1.0 142 142
r 0.375925 0 1 poisson 30 ------- 0 0.0 1.0 143 143
- 0.376005 0 1 poisson 210 ------- 0 0.0 1.0 150 150
r 0.377605 0 1 poisson 210 ------- 0 0.0 1.0 144 144
- 0.377685 0 1 poisson 30 ------- 0 0.0 1.0 151 151
- 0.377925 0 1 poisson 210 ------- 0 0.0 1.0 152 152
r 0.379285 0 1 poisson 210 ------- 0 0.0 1.0 145 145
- 0.379605 0 1 poisson 210 ------- 0 0.0 1.0 153 153
r 0.380965 0 1 poisson 210 ------- 0 0.0 1.0 146 146
- 0.381285 0 1 poisson 210 ------- 0 0.0 1.0 154 154
r 0.382645 0 1 poisson 210 ------- 0 0.0 1.0 147 147
- 0.382965 0 1 poisson 210 ------- 0 0.0 1.0 155 155
r 0.384325 0 1 poisson 210 ------- 0 0.0 1.0 148 148
- 0.384645 0 1 poisson 210 ------- 0 0.0 1.0 156 156
r 0.386005 0 1 poisson 210 ------- 0 0.0 1.0 149 149
- 0.386325 0 1 poisson 210 ------- 0 0.0 1.0 157 157
r 0.387685 0 1 poisson 210 ------- 0 0.0 1.0 150 150
r 0.387925 0 1 poisson 30 ------- 0 0.0 1.0 151 151
- 0.388005 0 1 poisson 210 ------- 0 0.0 1.0 158 158
r 0.389605 0 1 poisson 210 ------- 0 0.0 1.0 152 152
- 0.389685 0 1 poisson 30 ------- 0 0.0 1.0 159 159
r 0.391285 0 1 poisson 210 ------- 0 0.0 1.0 153 153
r 0.392965 0 1 poisson 210 ------- 0 0.0 1.0 154 154
r 0.394645 0 1 poisson 210 ------- 0 0.0 1.0 155 155
r 0.396325 0 1 poisson 210 ------- 0 0.0 1.0 156 156
r 0.398005 0 1 poisson 210 ------- 0 0.0 1.0 157 157
r 0.399685 0 1 poisson 210 ------- 0 0.0 1.0 158 158
r 0.399925 0 1 poisson 30 ------- 0 0.0 1.0 159 159
+ 0.40333 0 1 poisson 210 ------- 0 0.0 1.0 160 160
- 0.40333 0 1 poisson 210 ------- 0 0.0 1.0 160 160
+ 0.40333 0 1 poisson 210 ------- 0 0.0 1.0 161 161
+ 0.40333 0 1 poisson 210 ------- 0 0.0 1.0 162 162
+ 0.40333 0 1 poisson 210 ------- 0 0.0 1.0 163 163
+ 0.40333 0 1 poisson 210 ------- 0 0.0 1.0 164 164
+ 0.40333 0 1 poisson 210 ------- 0 0.0 1.0 165 165
+ 0.40333 0 1 poisson 210 ------- 0 0.0 1.0 166 166
+ 0.40333 0 1 poisson 30 ------- 0 0.0 1.0 167 167
- 0.40501 0 1 poisson 210 ------- 0 0.0 1.0 161 161
+ 0.405902 0 1 poisson 210 ------- 0 0.0 1.0 168 168
+ 0.405902 0 1 poisson 210 ------- 0 0.0 1.0 169 169
+ 0.405902 0 1 poisson 210 ------- 0 0.0 1.0 170 170
+ 0.405902 0 1 poisson 210 ------- 0 0.0 1.0 171 171
+ 0.405902 0 1 poisson 210 ------- 0 0.0 1.0 172 172
+ 0.405902 0 1 poisson 210 ------- 0 0.0 1.0 173 173
+ 0.405902 0 1 poisson 210 ------- 0 0.0 1.0 174 174
+ 0.405902 0 1 poisson 30 ------- 0 0.0 1.0 175 175
- 0.40669 0 1 poisson 210 ------- 0 0.0 1.0 162 162
- 0.40837 0 1 poisson 210 ------- 0 0.0 1.0 163 163
- 0.41005 0 1 poisson 210 ------- 0 0.0 1.0 164 164
- 0.41173 0 1 poisson 210 ------- 0 0.0 1.0 165 165
- 0.41341 0 1 poisson 210 ------- 0 0.0 1.0 166 166
r 0.41501 0 1 poisson 210 ------- 0 0.0 1.0 160 160
- 0.41509 0 1 poisson 30 ------- 0 0.0 1.0 167 167
- 0.41533 0 1 poisson 210 ------- 0 0.0 1.0 168 168
r 0.41669 0 1 poisson 210 ------- 0 0.0 1.0 161 161
- 0.41701 0 1 poisson 210 ------- 0 0.0 1.0 169 169
r 0.41837 0 1 poisson 210 ------- 0 0.0 1.0 162 162
+ 0.418544 0 1 poisson 210 ------- 0 0.0 1.0 176 176
+ 0.418544 0 1 poisson 210 ------- 0 0.0 1.0 177 177
+ 0.418544 0 1 poisson 210 ------- 0 0.0 1.0 178 178
+ 0.418544 0 1 poisson 210 ------- 0 0.0 1.0 179 179
+ 0.418544 0 1 poisson 210 ------- 0 0.0 1.0 180 180
+ 0.418544 0 1 poisson 210 ------- 0 0.0 1.0 181 181
+ 0.418544 0 1 poisson 210 ------- 0 0.0 1.0 182 182
+ 0.418544 0 1 poisson 30 ------- 0 0.0 1.0 183 183
- 0.41869 0 1 poisson 210 ------- 0 0.0 1.0 170 170
r 0.42005 0 1 poisson 210 ------- 0 0.0 1.0 163 163
- 0.42037 0 1 poisson 210 ------- 0 0.0 1.0 171 171
r 0.42173 0 1 poisson 210 ------- 0 0.0 1.0 164 164
- 0.42205 0 1 poisson 210 ------- 0 0.0 1.0 172 172
r 0.42341 0 1 poisson 210 ------- 0 0.0 1.0 165 165
- 0.42373 0 1 poisson 210 ------- 0 0.0 1.0 173 173
r 0.42509 0 1 poisson 210 ------- 0 0.0 1.0 166 166
r 0.42533 0 1 poisson 30 ------- 0 0.0 1.0 167 167
- 0.42541 0 1 poisson 210 ------- 0 0.0 1.0 174 174
r 0.42701 0 1 poisson 210 ------- 0 0.0 1.0 168 168
- 0.42709 0 1 poisson 30 ------- 0 0.0 1.0 175 175
- 0.42733 0 1 poisson 210 ------- 0 0.0 1.0 176 176
r 0.42869 0 1 poisson 210 ------- 0 0.0 1.0 169 169
- 0.42901 0 1 poisson 210 ------- 0 0.0 1.0 177 177
r 0.43037 0 1 poisson 210 ------- 0 0.0 1.0 170 170
- 0.43069 0 1 poisson 210 ------- 0 0.0 1.0 178 178
r 0.43205 0 1 poisson 210 ------- 0 0.0 1.0 171 171
- 0.43237 0 1 poisson 210 ------- 0 0.0 1.0 179 179
r 0.43373 0 1 poisson 210 ------- 0 0.0 1.0 172 172
- 0.43405 0 1 poisson 210 ------- 0 0.0 1.0 180 180
+ 0.434797 0 1 poisson 210 ------- 0 0.0 1.0 184 184
+ 0.434797 0 1 poisson 210 ------- 0 0.0 1.0 185 185
+ 0.434797 0 1 poisson 210 ------- 0 0.0 1.0 186 186
+ 0.434797 0 1 poisson 210 ------- 0 0.0 1.0 187 187
+ 0.434797 0 1 poisson 210 ------- 0 0.0 1.0 188 188
+ 0.434797 0 1 poisson 210 ------- 0 0.0 1.0 189 189
+ 0.434797 0 1 poisson 210 ------- 0 0.0 1.0 190 190
+ 0.434797 0 1 poisson 30 ------- 0 0.0 1.0 191 191
r 0.43541 0 1 poisson 210 ------- 0 0.0 1.0 173 173
- 0.43573 0 1 poisson 210 ------- 0 0.0 1.0 181 181
r 0.43709 0 1 poisson 210 ------- 0 0.0 1.0 174 174
r 0.43733 0 1 poisson 30 ------- 0 0.0 1.0 175 175
- 0.43741 0 1 poisson 210 ------- 0 0.0 1.0 182 182
r 0.43901 0 1 poisson 210 ------- 0 0.0 1.0 176 176
- 0.43909 0 1 poisson 30 ------- 0 0.0 1.0 183 183
- 0.43933 0 1 poisson 210 ------- 0 0.0 1.0 184 184
r 0.44069 0 1 poisson 210 ------- 0 0.0 1.0 177 177
- 0.44101 0 1 poisson 210 ------- 0 0.0 1.0 185 185
r 0.44237 0 1 poisson 210 ------- 0 0.0 1.0 178 178
- 0.44269 0 1 poisson 210 ------- 0 0.0 1.0 186 186
r 0.44405 0 1 poisson 210 ------- 0 0.0 1.0 179 179
- 0.44437 0 1 poisson 210 ------- 0 0.0 1.0 187 187
+ 0.445535 0 1 poisson 210 ------- 0 0.0 1.0 192 192
+ 0.445535 0 1 poisson 210 ------- 0 0.0 1.0 193 193
+ 0.445535 0 1 poisson 210 ------- 0 0.0 1.0 194 194
+ 0.445535 0 1 poisson 210 ------- 0 0.0 1.0 195 195
+ 0.445535 0 1 poisson 210 ------- 0 0.0 1.0 196 196
+ 0.445535 0 1 poisson 210 ------- 0 0.0 1.0 197 197
+ 0.445535 0 1 poisson 210 ------- 0 0.0 1.0 198 198
+ 0.445535 0 1 poisson 30 ------- 0 0.0 1.0 199 199
r 0.44573 0 1 poisson 210 ------- 0 0.0 1.0 180 180
- 0.44605 0 1 poisson 210 ------- 0 0.0 1.0 188 188
r 0.44741 0 1 poisson 210 ------- 0 0.0 1.0 181 181
- 0.44773 0 1 poisson 210 ------- 0 0.0 1.0 189 189
r 0.44909 0 1 poisson 210 ------- 0 0.0 1.0 182 182
r 0.44933 0 1 poisson 30 ------- 0 0.0 1.0 183 183
- 0.44941 0 1 poisson 210 ------- 0 0.0 1.0 190 190
r 0.45101 0 1 poisson 210 ------- 0 0.0 1.0 184 184
- 0.45109 0 1 poisson 30 ------- 0 0.0 1.0 191 191
- 0.45133 0 1 poisson 210 ------- 0 0.0 1.0 192 192
r 0.45269 0 1 poisson 210 ------- 0 0.0 1.0 185 185
- 0.45301 0 1 poisson 210 ------- 0 0.0 1.0 193 193
+ 0.453413 0 1 poisson 210 ------- 0 0.0 1.0 200 200
+ 0.453413 0 1 poisson 210 ------- 0 0.0 1.0 201 201
+ 0.453413 0 1 poisson 210 ------- 0 0.0 1.0 202 202