V -t * -v 1.0a5 -a 0
A -t * -n 1 -p 0 -o 0xffffffff -c 31 -a 1
A -t * -h 1 -m 2147483647 -s 0
n -t * -a 0 -s 0 -S UP -v circle -c black -i black
n -t * -a 1 -s 1 -S UP -v circle -c black -i black
l -t * -s 0 -d 1 -S UP -r 1000000 -D 0.01 -c black
+ -t 0 -s 0 -d 1 -p poisson -e 210 -c 0 -i 0 -a 0 -x {0.0 1.0 0 ------- null}
- -t 0 -s 0 -d 1 -p poisson -e 210 -c 0 -i 0 -a 0 -x {0.0 1.0 0 ------- null}
h -t 0 -s 0 -d 1 -p poisson -e 210 -c 0 -i 0 -a 0 -x {0.0 1.0 -1 ------- null}
+ -t 0 -s 0 -d 1 -p poisson -e 210 -c 0 -i 1 -a 0 -x {0.0 1.0 1 ------- null}
+ -t 0 -s 0 -d 1 -p poisson -e 210 -c 0 -i 2 -a 0 -x {0.0 1.0 2 ------- null}
+ -t 0 -s 0 -d 1 -p poisson -e 210 -c 0 -i 3 -a 0 -x {0.0 1.0 3 ------- null}
+ -t 0 -s 0 -d 1 -p poisson -e 210 -c 0 -i 4 -a 0 -x {0.0 1.0 4 ------- null}
+ -t 0 -s 0 -d 1 -p poisson -e 210 -c 0 -i 5 -a 0 -x {0.0 1.0 5 ------- null}
+ -t 0 -s 0 -d 1 -p poisson -e 210 -c 0 -i 6 -a 0 -x {0.0 1.0 6 ------- null}
+ -t 0 -s 0 -d 1 -p poisson -e 30 -c 0 -i 7 -a 0 -x {0.0 1.0 7 ------- null}
- -t 0.00168 -s 0 -d 1 -p poisson -e 210 -c 0 -i 1 -a 0 -x {0.0 1.0 1 ------- null}
h -t 0.00168 -s 0 -d 1 -p poisson -e 210 -c 0 -i 1 -a 0 -x {0.0 1.0 -1 ------- null}
- -t 0.00336 -s 0 -d 1 -p poisson -e 210 -c 0 -i 2 -a 0 -x {0.0 1.0 2 ------- null}
h -t 0.00336 -s 0 -d 1 -p poisson -e 210 -c 0 -i 2 -a 0 -x {0.0 1.0 -1 ------- null}
- -t 0.00504 -s 0 -d 1 -p poisson -e 210 -c 0 -i 3 -a 0 -x {0.0 1.0 3 ------- null}
h -t 0.00504 -s 0 -d 1 -p poisson -e 210 -c 0 -i 3 -a 0 -x {0.0 1.0 -1 ------- null}
- -t 0.00672 -s 0 -d 1 -p poisson -e 210 -c 0 -i 4 -a 0 -x {0.0 1.0 4 ------- null}
h -t 0.00672 -s 0 -d 1 -p poisson -e 210 -c 0 -i 4 -a 0 -x {0.0 1.0 -1 ------- null}
- -t 0.0084 -s 0 -d 1 -p poisson -e 210 -c 0 -i 5 -a 0 -x {0.0 1.0 5 ------- null}
h -t 0.0084 -s 0 -d 1 -p poisson -e 210 -c 0 -i 5 -a 0 -x {0.0 1.0 -1 ------- null}
- -t 0.01008 -s 0 -d 1 -p poisson -e 210 -c 0 -i 6 -a 0 -x {0.0 1.0 6 ------- null}
h -t 0.01008 -s 0 -d 1 -p poisson -e 210 -c 0 -i 6 -a 0 -x {0.0 1.0 -1 ------- null}
r -t 0.01168 -s 0 -d 1 -p poisson -e 210 -c 0 -i 0 -a 0 -x {0.0 1.0 0 ------- null}
- -t 0.01176 -s 0 -d 1 -p poisson -e 30 -c 0 -i 7 -a 0 -x {0.0 1.0 7 ------- null}
h -t 0.01176 -s 0 -d 1 -p poisson -e 30 -c 0 -i 7 -a 0 -x {0.0 1.0 -1 ------- null}
r -t 0.01336 -s 0 -d 1 -p poisson -e 210 -c 0 -i 1 -a 0 -x {0.0 1.0 1 ------- null}
r -t 0.01504 -s 0 -d 1 -p poisson -e 210 -c 0 -i 2 -a 0 -x {0.0 1.0 2 ------- null}
r -t 0.01672 -s 0 -d 1 -p poisson -e 210 -c 0 -i 3 -a 0 -x {0.0 1.0 3 ------- null}
r -t 0.0184 -s 0 -d 1 -p poisson -e 210 -c 0 -i 4 -a 0 -x {0.0 1.0 4 ------- null}
r -t 0.02008 -s 0 -d 1 -p poisson -e 210 -c 0 -i 5 -a 0 -x {0.0 1.0 5 ------- null}
r -t 0.02176 -s 0 -d 1 -p poisson -e 210 -c 0 -i 6 -a 0 -x {0.0 1.0 6 ------- null}
r -t 0.022 -s 0 -d 1 -p poisson -e 30 -c 0 -i 7 -a 0 -x {0.0 1.0 7 ------- null}
+ -t 0.191707420164983 -s 0 -d 1 -p poisson -e 210 -c 0 -i 8 -a 0 -x {0.0 1.0 8 ------- null}
- -t 0.191707420164983 -s 0 -d 1 -p poisson -e 210 -c 0 -i 8 -a 0 -x {0.0 1.0 8 ------- null}
h -t 0.191707420164983 -s 0 -d 1 -p poisson -e 210 -c 0 -i 8 -a 0 -x {0.0 1.0 -1 ------- null}
+ -t 0.191707420164983 -s 0 -d 1 -p poisson -e 210 -c 0 -i 9 -a 0 -x {0.0 1.0 9 ------- null}
+ -t 0.191707420164983 -s 0 -d 1 -p poisson -e 210 -c 0 -i 10 -a 0 -x {0.0 1.0 10 ------- null}
+ -t 0.191707420164983 -s 0 -d 1 -p poisson -e 210 -c 0 -i 11 -a 0 -x {0.0 1.0 11 ------- null}
+ -t 0.191707420164983 -s 0 -d 1 -p poisson -e 210 -c 0 -i 12 -a 0 -x {0.0 1.0 12 ------- null}
+ -t 0.191707420164983 -s 0 -d 1 -p poisson -e 210 -c 0 -i 13 -a 0 -x {0.0 1.0 13 ------- null}
+ -t 0.191707420164983 -s 0 -d 1 -p poisson -e 210 -c 0 -i 14 -a 0 -x {0.0 1.0 14 ------- null}
+ -t 0.191707420164983 -s 0 -d 1 -p poisson -e 30 -c 0 -i 15 -a 0 -x {0.0 1.0 15 ------- null}
- -t 0.193387420164983 -s 0 -d 1 -p poisson -e 210 -c 0 -i 9 -a 0 -x {0.0 1.0 9 ------- null}
h -t 0.193387420164983 -s 0 -d 1 -p poisson -e 210 -c 0 -i 9 -a 0 -x {0.0 1.0 -1 ------- null}
- -t 0.195067420164983 -s 0 -d 1 -p poisson -e 210 -c 0 -i 10 -a 0 -x {0.0 1.0 10 ------- null}
h -t 0.195067420164983 -s 0 -d 1 -p poisson -e 210 -c 0 -i 10 -a 0 -x {0.0 1.0 -1 ------- null}
- -t 0.196747420164983 -s 0 -d 1 -p poisson -e 210 -c 0 -i 11 -a 0 -x {0.0 1.0 11 ------- null}
h -t 0.196747420164983 -s 0 -d 1 -p poisson -e 210 -c 0 -i 11 -a 0 -x {0.0 1.0 -1 ------- null}
- -t 0.198427420164983 -s 0 -d 1 -p poisson -e 210 -c 0 -i 12 -a 0 -x {0.0 1.0 12 ------- null}
h -t 0.198427420164983 -s 0 -d 1 -p poisson -e 210 -c 0 -i 12 -a 0 -x {0.0 1.0 -1 ------- null}
- -t 0.200107420164983 -s 0 -d 1 -p poisson -e 210 -c 0 -i 13 -a 0 -x {0.0 1.0 13 ------- null}
h -t 0.200107420164983 -s 0 -d 1 -p poisson -e 210 -c 0 -i 13 -a 0 -x {0.0 1.0 -1 ------- null}
- -t 0.201787420164983 -s 0 -d 1 -p poisson -e 210 -c 0 -i 14 -a 0 -x {0.0 1.0 14 ------- null}
h -t 0.201787420164983 -s 0 -d 1 -p poisson -e 210 -c 0 -i 14 -a 0 -x {0.0 1.0 -1 ------- null}
r -t 0.203387420164983 -s 0 -d 1 -p poisson -e 210 -c 0 -i 8 -a 0 -x {0.0 1.0 8 ------- null}
- -t 0.203467420164983 -s 0 -d 1 -p poisson -e 30 -c 0 -i 15 -a 0 -x {0.0 1.0 15 ------- null}
h -t 0.203467420164983 -s 0 -d 1 -p poisson -e 30 -c 0 -i 15 -a 0 -x {0.0 1.0 -1 ------- null}
r -t 0.205067420164983 -s 0 -d 1 -p poisson -e 210 -c 0 -i 9 -a 0 -x {0.0 1.0 9 ------- null}
+ -t 0.205800257301329 -s 0 -d 1 -p poisson -e 210 -c 0 -i 16 -a 0 -x {0.0 1.0 16 ------- null}
- -t 0.205800257301329 -s 0 -d 1 -p poisson -e 210 -c 0 -i 16 -a 0 -x {0.0 1.0 16 ------- null}
h -t 0.205800257301329 -s 0 -d 1 -p poisson -e 210 -c 0 -i 16 -a 0 -x {0.0 1.0 -1 ------- null}
+ -t 0.205800257301329 -s 0 -d 1 -p poisson -e 210 -c 0 -i 17 -a 0 -x {0.0 1.0 17 ------- null}
+ -t 0.205800257301329 -s 0 -d 1 -p poisson -e 210 -c 0 -i 18 -a 0 -x {0.0 1.0 18 ------- null}
+ -t 0.205800257301329 -s 0 -d 1 -p poisson -e 210 -c 0 -i 19 -a 0 -x {0.0 1.0 19 ------- null}
+ -t 0.205800257301329 -s 0 -d 1 -p poisson -e 210 -c 0 -i 20 -a 0 -x {0.0 1.0 20 ------- null}
+ -t 0.205800257301329 -s 0 -d 1 -p poisson -e 210 -c 0 -i 21 -a 0 -x {0.0 1.0 21 ------- null}
+ -t 0.205800257301329 -s 0 -d 1 -p poisson -e 210 -c 0 -i 22 -a 0 -x {0.0 1.0 22 ------- null}
+ -t 0.205800257301329 -s 0 -d 1 -p poisson -e 30 -c 0 -i 23 -a 0 -x {0.0 1.0 23 ------- null}
r -t 0.206747420164983 -s 0 -d 1 -p poisson -e 210 -c 0 -i 10 -a 0 -x {0.0 1.0 10 ------- null}
- -t 0.207480257301329 -s 0 -d 1 -p poisson -e 210 -c 0 -i 17 -a 0 -x {0.0 1.0 17 ------- null}
h -t 0.207480257301329 -s 0 -d 1 -p poisson -e 210 -c 0 -i 17 -a 0 -x {0.0 1.0 -1 ------- null}
r -t 0.208427420164983 -s 0 -d 1 -p poisson -e 210 -c 0 -i 11 -a 0 -x {0.0 1.0 11 ------- null}
- -t 0.209160257301329 -s 0 -d 1 -p poisson -e 210 -c 0 -i 18 -a 0 -x {0.0 1.0 18 ------- null}
h -t 0.209160257301329 -s 0 -d 1 -p poisson -e 210 -c 0 -i 18 -a 0 -x {0.0 1.0 -1 ------- null}
r -t 0.210107420164983 -s 0 -d 1 -p poisson -e 210 -c 0 -i 12 -a 0 -x {0.0 1.0 12 ------- null}
- -t 0.210840257301329 -s 0 -d 1 -p poisson -e 210 -c 0 -i 19 -a 0 -x {0.0 1.0 19 ------- null}
h -t 0.210840257301329 -s 0 -d 1 -p poisson -e 210 -c 0 -i 19 -a 0 -x {0.0 1.0 -1 ------- null}
r -t 0.211787420164983 -s 0 -d 1 -p poisson -e 210 -c 0 -i 13 -a 0 -x {0.0 1.0 13 ------- null}
- -t 0.212520257301329 -s 0 -d 1 -p poisson -e 210 -c 0 -i 20 -a 0 -x {0.0 1.0 20 ------- null}
h -t 0.212520257301329 -s 0 -d 1 -p poisson -e 210 -c 0 -i 20 -a 0 -x {0.0 1.0 -1 ------- null}
r -t 0.213467420164983 -s 0 -d 1 -p poisson -e 210 -c 0 -i 14 -a 0 -x {0.0 1.0 14 ------- null}
r -t 0.213707420164983 -s 0 -d 1 -p poisson -e 30 -c 0 -i 15 -a 0 -x {0.0 1.0 15 ------- null}
- -t 0.214200257301329 -s 0 -d 1 -p poisson -e 210 -c 0 -i 21 -a 0 -x {0.0 1.0 21 ------- null}
h -t 0.214200257301329 -s 0 -d 1 -p poisson -e 210 -c 0 -i 21 -a 0 -x {0.0 1.0 -1 ------- null}
- -t 0.215880257301329 -s 0 -d 1 -p poisson -e 210 -c 0 -i 22 -a 0 -x {0.0 1.0 22 ------- null}
h -t 0.215880257301329 -s 0 -d 1 -p poisson -e 210 -c 0 -i 22 -a 0 -x {0.0 1.0 -1 ------- null}
r -t 0.217480257301329 -s 0 -d 1 -p poisson -e 210 -c 0 -i 16 -a 0 -x {0.0 1.0 16 ------- null}
- -t 0.217560257301329 -s 0 -d 1 -p poisson -e 30 -c 0 -i 23 -a 0 -x {0.0 1.0 23 ------- null}
h -t 0.217560257301329 -s 0 -d 1 -p poisson -e 30 -c 0 -i 23 -a 0 -x {0.0 1.0 -1 ------- null}
r -t 0.219160257301329 -s 0 -d 1 -p poisson -e 210 -c 0 -i 17 -a 0 -x {0.0 1.0 17 ------- null}
r -t 0.220840257301329 -s 0 -d 1 -p poisson -e 210 -c 0 -i 18 -a 0 -x {0.0 1.0 18 ------- null}
r -t 0.222520257301329 -s 0 -d 1 -p poisson -e 210 -c 0 -i 19 -a 0 -x {0.0 1.0 19 ------- null}
r -t 0.224200257301329 -s 0 -d 1 -p poisson -e 210 -c 0 -i 20 -a 0 -x {0.0 1.0 20 ------- null}
r -t 0.225880257301329 -s 0 -d 1 -p poisson -e 210 -c 0 -i 21 -a 0 -x {0.0 1.0 21 ------- null}
r -t 0.227560257301329 -s 0 -d 1 -p poisson -e 210 -c 0 -i 22 -a 0 -x {0.0 1.0 22 ------- null}
r -t 0.227800257301329 -s 0 -d 1 -p poisson -e 30 -c 0 -i 23 -a 0 -x {0.0 1.0 23 ------- null}
+ -t 0.307900700979077 -s 0 -d 1 -p poisson -e 210 -c 0 -i 24 -a 0 -x {0.0 1.0 24 ------- null}
- -t 0.307900700979077 -s 0 -d 1 -p poisson -e 210 -c 0 -i 24 -a 0 -x {0.0 1.0 24 ------- null}
h -t 0.307900700979077 -s 0 -d 1 -p poisson -e 210 -c 0 -i 24 -a 0 -x {0.0 1.0 -1 ------- null}
+ -t 0.307900700979077 -s 0 -d 1 -p poisson -e 210 -c 0 -i 25 -a 0 -x {0.0 1.0 25 ------- null}
+ -t 0.307900700979077 -s 0 -d 1 -p poisson -e 210 -c 0 -i 26 -a 0 -x {0.0 1.0 26 ------- null}
+ -t 0.307900700979077 -s 0 -d 1 -p poisson -e 210 -c 0 -i 27 -a 0 -x {0.0 1.0 27 ------- null}
+ -t 0.307900700979077 -s 0 -d 1 -p poisson -e 210 -c 0 -i 28 -a 0 -x {0.0 1.0 28 ------- null}
+ -t 0.307900700979077 -s 0 -d 1 -p poisson -e 210 -c 0 -i 29 -a 0 -x {0.0 1.0 29 ------- null}
+ -t 0.307900700979077 -s 0 -d 1 -p poisson -e 210 -c 0 -i 30 -a 0 -x {0.0 1.0 30 ------- null}
+ -t 0.307900700979077 -s 0 -d 1 -p poisson -e 30 -c 0 -i 31 -a 0 -x {0.0 1.0 31 ------- null}
- -t 0.309580700979077 -s 0 -d 1 -p poisson -e 210 -c 0 -i 25 -a 0 -x {0.0 1.0 25 ------- null}
h -t 0.309580700979077 -s 0 -d 1 -p poisson -e 210 -c 0 -i 25 -a 0 -x {0.0 1.0 -1 ------- null}
- -t 0.311260700979077 -s 0 -d 1 -p poisson -e 210 -c 0 -i 26 -a 0 -x {0.0 1.0 26 ------- null}
h -t 0.311260700979077 -s 0 -d 1 -p poisson -e 210 -c 0 -i 26 -a 0 -x {0.0 1.0 -1 ------- null}
- -t 0.312940700979077 -s 0 -d 1 -p poisson -e 210 -c 0 -i 27 -a 0 -x {0.0 1.0 27 ------- null}
h -t 0.312940700979077 -s 0 -d 1 -p poisson -e 210 -c 0 -i 27 -a 0 -x {0.0 1.0 -1 ------- null}
- -t 0.314620700979077 -s 0 -d 1 -p poisson -e 210 -c 0 -i 28 -a 0 -x {0.0 1.0 28 ------- null}
h -t 0.314620700979077 -s 0 -d 1 -p poisson -e 210 -c 0 -i 28 -a 0 -x {0.0 1.0 -1 ------- null}
- -t 0.316300700979077 -s 0 -d 1 -p poisson -e 210 -c 0 -i 29 -a 0 -x {0.0 1.0 29 ------- null}
h -t 0.316300700979077 -s 0 -d 1 -p poisson -e 210 -c 0 -i 29 -a 0 -x {0.0 1.0 -1 ------- null}
- -t 0.317980700979077 -s 0 -d 1 -p poisson -e 210 -c 0 -i 30 -a 0 -x {0.0 1.0 30 ------- null}
h -t 0.317980700979077 -s 0 -d 1 -p poisson -e 210 -c 0 -i 30 -a 0 -x {0.0 1.0 -1 ------- null}
r -t 0.319580700979077 -s 0 -d 1 -p poisson -e 210 -c 0 -i 24 -a 0 -x {0.0 1.0 24 ------- null}
- -t 0.319660700979077 -s 0 -d 1 -p poisson -e 30 -c 0 -i 31 -a 0 -x {0.0 1.0 31 ------- null}
h -t 0.319660700979077 -s 0 -d 1 -p poisson -e 30 -c 0 -i 31 -a 0 -x {0.0 1.0 -1 ------- null}
r -t 0.321260700979077 -s 0 -d 1 -p poisson -e 210 -c 0 -i 25 -a 0 -x {0.0 1.0 25 ------- null}
r -t 0.322940700979077 -s 0 -d 1 -p poisson -e 210 -c 0 -i 26 -a 0 -x {0.0 1.0 26 ------- null}
r -t 0.324620700979077 -s 0 -d 1 -p poisson -e 210 -c 0 -i 27 -a 0 -x {0.0 1.0 27 ------- null}
r -t 0.326300700979077 -s 0 -d 1 -p poisson -e 210 -c 0 -i 28 -a 0 -x {0.0 1.0 28 ------- null}
r -t 0.327980700979077 -s 0 -d 1 -p poisson -e 210 -c 0 -i 29 -a 0 -x {0.0 1.0 29 ------- null}
r -t 0.329660700979077 -s 0 -d 1 -p poisson -e 210 -c 0 -i 30 -a 0 -x {0.0 1.0 30 ------- null}
r -t 0.329900700979077 -s 0 -d 1 -p poisson -e 30 -c 0 -i 31 -a 0 -x {0.0 1.0 31 ------- null}
+ -t 0.366197311611203 -s 0 -d 1 -p poisson -e 210 -c 0 -i 32 -a 0 -x {0.0 1.0 32 ------- null}
- -t 0.366197311611203 -s 0 -d 1 -p poisson -e 210 -c 0 -i 32 -a 0 -x {0.0 1.0 32 ------- null}
h -t 0.366197311611203 -s 0 -d 1 -p poisson -e 210 -c 0 -i 32 -a 0 -x {0.0 1.0 -1 ------- null}
+ -t 0.366197311611203 -s 0 -d 1 -p poisson -e 210 -c 0 -i 33 -a 0 -x {0.0 1.0 33 ------- null}
+ -t 0.366197311611203 -s 0 -d 1 -p poisson -e 210 -c 0 -i 34 -a 0 -x {0.0 1.0 34 ------- null}
+ -t 0.366197311611203 -s 0 -d 1 -p poisson -e 210 -c 0 -i 35 -a 0 -x {0.0 1.0 35 ------- null}
+ -t 0.366197311611203 -s 0 -d 1 -p poisson -e 210 -c 0 -i 36 -a 0 -x {0.0 1.0 36 ------- null}
+ -t 0.366197311611203 -s 0 -d 1 -p poisson -e 210 -c 0 -i 37 -a 0 -x {0.0 1.0 37 ------- null}
+ -t 0.366197311611203 -s 0 -d 1 -p poisson -e 210 -c 0 -i 38 -a 0 -x {0.0 1.0 38 ------- null}
+ -t 0.366197311611203 -s 0 -d 1 -p poisson -e 30 -c 0 -i 39 -a 0 -x {0.0 1.0 39 ------- null}
- -t 0.367877311611203 -s 0 -d 1 -p poisson -e 210 -c 0 -i 33 -a 0 -x {0.0 1.0 33 ------- null}
h -t 0.367877311611203 -s 0 -d 1 -p poisson -e 210 -c 0 -i 33 -a 0 -x {0.0 1.0 -1 ------- null}
- -t 0.369557311611203 -s 0 -d 1 -p poisson -e 210 -c 0 -i 34 -a 0 -x {0.0 1.0 34 ------- null}
h -t 0.369557311611203 -s 0 -d 1 -p poisson -e 210 -c 0 -i 34 -a 0 -x {0.0 1.0 -1 ------- null}
- -t 0.371237311611203 -s 0 -d 1 -p poisson -e 210 -c 0 -i 35 -a 0 -x {0.0 1.0 35 ------- null}
h -t 0.371237311611203 -s 0 -d 1 -p poisson -e 210 -c 0 -i 35 -a 0 -x {0.0 1.0 -1 ------- null}
- -t 0.372917311611203 -s 0 -d 1 -p poisson -e 210 -c 0 -i 36 -a 0 -x {0.0 1.0 36 ------- null}
h -t 0.372917311611203 -s 0 -d 1 -p poisson -e 210 -c 0 -i 36 -a 0 -x {0.0 1.0 -1 ------- null}
- -t 0.374597311611203 -s 0 -d 1 -p poisson -e 210 -c 0 -i 37 -a 0 -x {0.0 1.0 37 ------- null}
h -t 0.374597311611203 -s 0 -d 1 -p poisson -e 210 -c 0 -i 37 -a 0 -x {0.0 1.0 -1 ------- null}
- -t 0.376277311611203 -s 0 -d 1 -p poisson -e 210 -c 0 -i 38 -a 0 -x {0.0 1.0 38 ------- null}
h -t 0.376277311611203 -s 0 -d 1 -p poisson -e 210 -c 0 -i 38 -a 0 -x {0.0 1.0 -1 ------- null}
r -t 0.377877311611203 -s 0 -d 1 -p poisson -e 210 -c 0 -i 32 -a 0 -x {0.0 1.0 32 ------- null}
- -t 0.377957311611203 -s 0 -d 1 -p poisson -e 30 -c 0 -i 39 -a 0 -x {0.0 1.0 39 ------- null}
h -t 0.377957311611203 -s 0 -d 1 -p poisson -e 30 -c 0 -i 39 -a 0 -x {0.0 1.0 -1 ------- null}
r -t 0.379557311611203 -s 0 -d 1 -p poisson -e 210 -c 0 -i 33 -a 0 -x {0.0 1.0 33 ------- null}
r -t 0.381237311611203 -s 0 -d 1 -p poisson -e 210 -c 0 -i 34 -a 0 -x {0.0 1.0 34 ------- null}
r -t 0.382917311611203 -s 0 -d 1 -p poisson -e 210 -c 0 -i 35 -a 0 -x {0.0 1.0 35 ------- null}
r -t 0.384597311611203 -s 0 -d 1 -p poisson -e 210 -c 0 -i 36 -a 0 -x {0.0 1.0 36 ------- null}
+ -t 0.385836927392687 -s 0 -d 1 -p poisson -e 210 -c 0 -i 40 -a 0 -x {0.0 1.0 40 ------- null}
- -t 0.385836927392687 -s 0 -d 1 -p poisson -e 210 -c 0 -i 40 -a 0 -x {0.0 1.0 40 ------- null}
h -t 0.385836927392687 -s 0 -d 1 -p poisson -e 210 -c 0 -i 40 -a 0 -x {0.0 1.0 -1 ------- null}
+ -t 0.385836927392687 -s 0 -d 1 -p poisson -e 210 -c 0 -i 41 -a 0 -x {0.0 1.0 41 ------- null}
+ -t 0.385836927392687 -s 0 -d 1 -p poisson -e 210 -c 0 -i 42 -a 0 -x {0.0 1.0 42 ------- null}
+ -t 0.385836927392687 -s 0 -d 1 -p poisson -e 210 -c 0 -i 43 -a 0 -x {0.0 1.0 43 ------- null}
+ -t 0.385836927392687 -s 0 -d 1 -p poisson -e 210 -c 0 -i 44 -a 0 -x {0.0 1.0 44 ------- null}
+ -t 0.385836927392687 -s 0 -d 1 -p poisson -e 210 -c 0 -i 45 -a 0 -x {0.0 1.0 45 ------- null}
+ -t 0.385836927392687 -s 0 -d 1 -p poisson -e 210 -c 0 -i 46 -a 0 -x {0.0 1.0 46 ------- null}
+ -t 0.385836927392687 -s 0 -d 1 -p poisson -e 30 -c 0 -i 47 -a 0 -x {0.0 1.0 47 ------- null}
r -t 0.386277311611203 -s 0 -d 1 -p poisson -e 210 -c 0 -i 37 -a 0 -x {0.0 1.0 37 ------- null}
- -t 0.387516927392687 -s 0 -d 1 -p poisson -e 210 -c 0 -i 41 -a 0 -x {0.0 1.0 41 ------- null}
h -t 0.387516927392687 -s 0 -d 1 -p poisson -e 210 -c 0 -i 41 -a 0 -x {0.0 1.0 -1 ------- null}
r -t 0.387957311611203 -s 0 -d 1 -p poisson -e 210 -c 0 -i 38 -a 0 -x {0.0 1.0 38 ------- null}
r -t 0.388197311611203 -s 0 -d 1 -p poisson -e 30 -c 0 -i 39 -a 0 -x {0.0 1.0 39 ------- null}
- -t 0.389196927392687 -s 0 -d 1 -p poisson -e 210 -c 0 -i 42 -a 0 -x {0.0 1.0 42 ------- null}
h -t 0.389196927392687 -s 0 -d 1 -p poisson -e 210 -c 0 -i 42 -a 0 -x {0.0 1.0 -1 ------- null}
- -t 0.390876927392687 -s 0 -d 1 -p poisson -e 210 -c 0 -i 43 -a 0 -x {0.0 1.0 43 ------- null}
h -t 0.390876927392687 -s 0 -d 1 -p poisson -e 210 -c 0 -i 43 -a 0 -x {0.0 1.0 -1 ------- null}
+ -t 0.391217722402097 -s 0 -d 1 -p poisson -e 210 -c 0 -i 48 -a 0 -x {0.0 1.0 48 ------- null}
+ -t 0.391217722402097 -s 0 -d 1 -p poisson -e 210 -c 0 -i 49 -a 0 -x {0.0 1.0 49 ------- null}
+ -t 0.391217722402097 -s 0 -d 1 -p poisson -e 210 -c 0 -i 50 -a 0 -x {0.0 1.0 50 ------- null}
+ -t 0.391217722402097 -s 0 -d 1 -p poisson -e 210 -c 0 -i 51 -a 0 -x {0.0 1.0 51 ------- null}
+ -t 0.391217722402097 -s 0 -d 1 -p poisson -e 210 -c 0 -i 52 -a 0 -x {0.0 1.0 52 ------- null}
+ -t 0.391217722402097 -s 0 -d 1 -p poisson -e 210 -c 0 -i 53 -a 0 -x {0.0 1.0 53 ------- null}
+ -t 0.391217722402097 -s 0 -d 1 -p poisson -e 210 -c 0 -i 54 -a 0 -x {0.0 1.0 54 ------- null}
+ -t 0.391217722402097 -s 0 -d 1 -p poisson -e 30 -c 0 -i 55 -a 0 -x {0.0 1.0 55 ------- null}
- -t 0.392556927392687 -s 0 -d 1 -p poisson -e 210 -c 0 -i 44 -a 0 -x {0.0 1.0 44 ------- null}
h -t 0.392556927392687 -s 0 -d 1 -p poisson -e 210 -c 0 -i 44 -a 0 -x {0.0 1.0 -1 ------- null}
- -t 0.394236927392687 -s 0 -d 1 -p poisson -e 210 -c 0 -i 45 -a 0 -x {0.0 1.0 45 ------- null}
h -t 0.394236927392687 -s 0 -d 1 -p poisson -e 210 -c 0 -i 45 -a 0 -x {0.0 1.0 -1 ------- null}
- -t 0.395916927392687 -s 0 -d 1 -p poisson -e 210 -c 0 -i 46 -a 0 -x {0.0 1.0 46 ------- null}
h -t 0.395916927392687 -s 0 -d 1 -p poisson -e 210 -c 0 -i 46 -a 0 -x {0.0 1.0 -1 ------- null}
r -t 0.397516927392687 -s 0 -d 1 -p poisson -e 210 -c 0 -i 40 -a 0 -x {0.0 1.0 40 ------- null}
- -t 0.397596927392687 -s 0 -d 1 -p poisson -e 30 -c 0 -i 47 -a 0 -x {0.0 1.0 47 ------- null}
h -t 0.397596927392687 -s 0 -d 1 -p poisson -e 30 -c 0 -i 47 -a 0 -x {0.0 1.0 -1 ------- null}
- -t 0.397836927392687 -s 0 -d 1 -p poisson -e 210 -c 0 -i 48 -a 0 -x {0.0 1.0 48 ------- null}
h -t 0.397836927392687 -s 0 -d 1 -p poisson -e 210 -c 0 -i 48 -a 0 -x {0.0 1.0 -1 ------- null}
r -t 0.399196927392687 -s 0 -d 1 -p poisson -e 210 -c 0 -i 41 -a 0 -x {0.0 1.0 41 ------- null}
- -t 0.399516927392687 -s 0 -d 1 -p poisson -e 210 -c 0 -i 49 -a 0 -x {0.0 1.0 49 ------- null}
h -t 0.399516927392687 -s 0 -d 1 -p poisson -e 210 -c 0 -i 49 -a 0 -x {0.0 1.0 -1 ------- null}
r -t 0.400876927392687 -s 0 -d 1 -p poisson -e 210 -c 0 -i 42 -a 0 -x {0.0 1.0 42 ------- null}
- -t 0.401196927392687 -s 0 -d 1 -p poisson -e 210 -c 0 -i 50 -a 0 -x {0.0 1.0 50 ------- null}
h -t 0.401196927392687 -s 0 -d 1 -p poisson -e 210 -c 0 -i 50 -a 0 -x {0.0 1.0 -1 ------- null}
r -t 0.402556927392687 -s 0 -d 1 -p poisson -e 210 -c 0 -i 43 -a 0 -x {0.0 1.0 43 ------- null}
- -t 0.402876927392687 -s 0 -d 1 -p poisson -e 210 -c 0 -i 51 -a 0 -x {0.0 1.0 51 ------- null}
h -t 0.402876927392687 -s 0 -d 1 -p poisson -e 210 -c 0 -i 51 -a 0 -x {0.0 1.0 -1 ------- null}
r -t 0.404236927392687 -s 0 -d 1 -p poisson -e 210 -c 0 -i 44 -a 0 -x {0.0 1.0 44 ------- null}
- -t 0.404556927392687 -s 0 -d 1 -p poisson -e 210 -c 0 -i 52 -a 0 -x {0.0 1.0 52 ------- null}
h -t 0.404556927392687 -s 0 -d 1 -p poisson -e 210 -c 0 -i 52 -a 0 -x {0.0 1.0 -1 ------- null}
r -t 0.405916927392687 -s 0 -d 1 -p poisson -e 210 -c 0 -i 45 -a 0 -x {0.0 1.0 45 ------- null}
- -t 0.406236927392687 -s 0 -d 1 -p poisson -e 210 -c 0 -i 53 -a 0 -x {0.0 1.0 53 ------- null}
h -t 0.406236927392687 -s 0 -d 1 -p poisson -e 210 -c 0 -i 53 -a 0 -x {0.0 1.0 -1 ------- null}
r -t 0.407596927392687 -s 0 -d 1 -p poisson -e 210 -c 0 -i 46 -a 0 -x {0.0 1.0 46 ------- null}
r -t 0.407836927392687 -s 0 -d 1 -p poisson -e 30 -c 0 -i 47 -a 0 -x {0.0 1.0 47 ------- null}
- -t 0.407916927392687 -s 0 -d 1 -p poisson -e 210 -c 0 -i 54 -a 0 -x {0.0 1.0 54 ------- null}
h -t 0.407916927392687 -s 0 -d 1 -p poisson -e 210 -c 0 -i 54 -a 0 -x {0.0 1.0 -1 ------- null}
r -t 0.409516927392687 -s 0 -d 1 -p poisson -e 210 -c 0 -i 48 -a 0 -x {0.0 1.0 48 ------- null}
- -t 0.409596927392687 -s 0 -d 1 -p poisson -e 30 -c 0 -i 55 -a 0 -x {0.0 1.0 55 ------- null}
h -t 0.409596927392687 -s 0 -d 1 -p poisson -e 30 -c 0 -i 55 -a 0 -x {0.0 1.0 -1 ------- null}
r -t 0.411196927392687 -s 0 -d 1 -p poisson -e 210 -c 0 -i 49 -a 0 -x {0.0 1.0 49 ------- null}
r -t 0.412876927392687 -s 0 -d 1 -p poisson -e 210 -c 0 -i 50 -a 0 -x {0.0 1.0 50 ------- null}
r -t 0.414556927392687 -s 0 -d 1 -p poisson -e 210 -c 0 -i 51 -a 0 -x {0.0 1.0 51 ------- null}
r -t 0.416236927392687 -s 0 -d 1 -p poisson -e 210 -c 0 -i 52 -a 0 -x {0.0 1.0 52 ------- null}
r -t 0.417916927392687 -s 0 -d 1 -p poisson -e 210 -c 0 -i 53 -a 0 -x {0.0 1.0 53 ------- null}
+ -t 0.419097903951703 -s 0 -d 1 -p poisson -e 210 -c 0 -i 56 -a 0 -x {0.0 1.0 56 ------- null}
- -t 0.419097903951703 -s 0 -d 1 -p poisson -e 210 -c 0 -i 56 -a 0 -x {0.0 1.0 56 ------- null}
h -t 0.419097903951703 -s 0 -d 1 -p poisson -e 210 -c 0 -i 56 -a 0 -x {0.0 1.0 -1 ------- null}
+ -t 0.419097903951703 -s 0 -d 1 -p poisson -e 210 -c 0 -i 57 -a 0 -x {0.0 1.0 57 ------- null}
+ -t 0.419097903951703 -s 0 -d 1 -p poisson -e 210 -c 0 -i 58 -a 0 -x {0.0 1.0 58 ------- null}
+ -t 0.419097903951703 -s 0 -d 1 -p poisson -e 210 -c 0 -i 59 -a 0 -x {0.0 1.0 59 ------- null}
+ -t 0.419097903951703 -s 0 -d 1 -p poisson -e 210 -c 0 -i 60 -a 0 -x {0.0 1.0 60 ------- null}
+ -t 0.419097903951703 -s 0 -d 1 -p poisson -e 210 -c 0 -i 61 -a 0 -x {0.0 1.0 61 ------- null}
+ -t 0.419097903951703 -s 0 -d 1 -p poisson -e 210 -c 0 -i 62 -a 0 -x {0.0 1.0 62 ------- null}
+ -t 0.419097903951703 -s 0 -d 1 -p poisson -e 30 -c 0 -i 63 -a 0 -x {0.0 1.0 63 ------- null}
r -t 0.419596927392687 -s 0 -d 1 -p poisson -e 210 -c 0 -i 54 -a 0 -x {0.0 1.0 54 ------- null}
r -t 0.419836927392687 -s 0 -d 1 -p poisson -e 30 -c 0 -i 55 -a 0 -x {0.0 1.0 55 ------- null}
- -t 0.420777903951703 -s 0 -d 1 -p poisson -e 210 -c 0 -i 57 -a 0 -x {0.0 1.0 57 ------- null}
h -t 0.420777903951703 -s 0 -d 1 -p poisson -e 210 -c 0 -i 57 -a 0 -x {0.0 1.0 -1 ------- null}
- -t 0.422457903951703 -s 0 -d 1 -p poisson -e 210 -c 0 -i 58 -a 0 -x {0.0 1.0 58 ------- null}
h -t 0.422457903951703 -s 0 -d 1 -p poisson -e 210 -c 0 -i 58 -a 0 -x {0.0 1.0 -1 ------- null}
+ -t 0.423964088698336 -s 0 -d 1 -p poisson -e 210 -c 0 -i 64 -a 0 -x {0.0 1.0 64 ------- null}
+ -t 0.423964088698336 -s 0 -d 1 -p poisson -e 210 -c 0 -i 65 -a 0 -x {0.0 1.0 65 ------- null}
+ -t 0.423964088698336 -s 0 -d 1 -p poisson -e 210 -c 0 -i 66 -a 0 -x {0.0 1.0 66 ------- null}
+ -t 0.423964088698336 -s 0 -d 1 -p poisson -e 210 -c 0 -i 67 -a 0 -x {0.0 1.0 67 ------- null}
+ -t 0.423964088698336 -s 0 -d 1 -p poisson -e 210 -c 0 -i 68 -a 0 -x {0.0 1.0 68 ------- null}
+ -t 0.423964088698336 -s 0 -d 1 -p poisson -e 210 -c 0 -i 69 -a 0 -x {0.0 1.0 69 ------- null}
+ -t 0.423964088698336 -s 0 -d 1 -p poisson -e 210 -c 0 -i 70 -a 0 -x {0.0 1.0 70 ------- null}
+ -t 0.423964088698336 -s 0 -d 1 -p poisson -e 30 -c 0 -i 71 -a 0 -x {0.0 1.0 71 ------- null}
- -t 0.424137903951703 -s 0 -d 1 -p poisson -e 210 -c 0 -i 59 -a 0 -x {0.0 1.0 59 ------- null}
h -t 0.424137903951703 -s 0 -d 1 -p poisson -e 210 -c 0 -i 59 -a 0 -x {0.0 1.0 -1 ------- null}
- -t 0.425817903951703 -s 0 -d 1 -p poisson -e 210 -c 0 -i 60 -a 0 -x {0.0 1.0 60 ------- null}
h -t 0.425817903951703 -s 0 -d 1 -p poisson -e 210 -c 0 -i 60 -a 0 -x {0.0 1.0 -1 ------- null}
- -t 0.427497903951703 -s 0 -d 1 -p poisson -e 210 -c 0 -i 61 -a 0 -x {0.0 1.0 61 ------- null}
h -t 0.427497903951703 -s 0 -d 1 -p poisson -e 210 -c 0 -i 61 -a 0 -x {0.0 1.0 -1 ------- null}
- -t 0.429177903951703 -s 0 -d 1 -p poisson -e 210 -c 0 -i 62 -a 0 -x {0.0 1.0 62 ------- null}
h -t 0.429177903951703 -s 0 -d 1 -p poisson -e 210 -c 0 -i 62 -a 0 -x {0.0 1.0 -1 ------- null}
r -t 0.430777903951703 -s 0 -d 1 -p poisson -e 210 -c 0 -i 56 -a 0 -x {0.0 1.0 56 ------- null}
- -t 0.430857903951703 -s 0 -d 1 -p poisson -e 30 -c 0 -i 63 -a 0 -x {0.0 1.0 63 ------- null}
h -t 0.430857903951703 -s 0 -d 1 -p poisson -e 30 -c 0 -i 63 -a 0 -x {0.0 1.0 -1 ------- null}
- -t 0.431097903951703 -s 0 -d 1 -p poisson -e 210 -c 0 -i 64 -a 0 -x {0.0 1.0 64 ------- null}
h -t 0.431097903951703 -s 0 -d 1 -p poisson -e 210 -c 0 -i 64 -a 0 -x {0.0 1.0 -1 ------- null}
r -t 0.432457903951703 -s 0 -d 1 -p poisson -e 210 -c 0 -i 57 -a 0 -x {0.0 1.0 57 ------- null}
- -t 0.432777903951703 -s 0 -d 1 -p poisson -e 210 -c 0 -i 65 -a 0 -x {0.0 1.0 65 ------- null}
h -t 0.432777903951703 -s 0 -d 1 -p poisson -e 210 -c 0 -i 65 -a 0 -x {0.0 1.0 -1 ------- null}
r -t 0.434137903951703 -s 0 -d 1 -p poisson -e 210 -c 0 -i 58 -a 0 -x {0.0 1.0 58 ------- null}
- -t 0.434457903951703 -s 0 -d 1 -p poisson -e 210 -c 0 -i 66 -a 0 -x {0.0 1.0 66 ------- null}
h -t 0.434457903951703 -s 0 -d 1 -p poisson -e 210 -c 0 -i 66 -a 0 -x {0.0 1.0 -1 ------- null}
r -t 0.435817903951703 -s 0 -d 1 -p poisson -e 210 -c 0 -i 59 -a 0 -x {0.0 1.0 59 ------- null}
- -t 0.436137903951703 -s 0 -d 1 -p poisson -e 210 -c 0 -i 67 -a 0 -x {0.0 1.0 67 ------- null}
h -t 0.436137903951703 -s 0 -d 1 -p poisson -e 210 -c 0 -i 67 -a 0 -x {0.0 1.0 -1 ------- null}
r -t 0.437497903951703 -s 0 -d 1 -p poisson -e 210 -c 0 -i 60 -a 0 -x {0.0 1.0 60 ------- null}
- -t 0.437817903951704 -s 0 -d 1 -p poisson -e 210 -c 0 -i 68 -a 0 -x {0.0 1.0 68 ------- null}
h -t 0.437817903951704 -s 0 -d 1 -p poisson -e 210 -c 0 -i 68 -a 0 -x {0.0 1.0 -1 ------- null}
r -t 0.439177903951703 -s 0 -d 1 -p poisson -e 210 -c 0 -i 61 -a 0 -x {0.0 1.0 61 ------- null}
- -t 0.439497903951704 -s 0 -d 1 -p poisson -e 210 -c 0 -i 69 -a 0 -x {0.0 1.0 69 ------- null}
h -t 0.439497903951704 -s 0 -d 1 -p poisson -e 210 -c 0 -i 69 -a 0 -x {0.0 1.0 -1 ------- null}
r -t 0.440857903951703 -s 0 -d 1 -p poisson -e 210 -c 0 -i 62 -a 0 -x {0.0 1.0 62 ------- null}
r -t 0.441097903951703 -s 0 -d 1 -p poisson -e 30 -c 0 -i 63 -a 0 -x {0.0 1.0 63 ------- null}
- -t 0.441177903951704 -s 0 -d 1 -p poisson -e 210 -c 0 -i 70 -a 0 -x {0.0 1.0 70 ------- null}
h -t 0.441177903951704 -s 0 -d 1 -p poisson -e 210 -c 0 -i 70 -a 0 -x {0.0 1.0 -1 ------- null}
r -t 0.442777903951703 -s 0 -d 1 -p poisson -e 210 -c 0 -i 64 -a 0 -x {0.0 1.0 64 ------- null}
- -t 0.442857903951704 -s 0 -d 1 -p poisson -e 30 -c 0 -i 71 -a 0 -x {0.0 1.0 71 ------- null}
h -t 0.442857903951704 -s 0 -d 1 -p poisson -e 30 -c 0 -i 71 -a 0 -x {0.0 1.0 -1 ------- null}
r -t 0.444457903951703 -s 0 -d 1 -p poisson -e 210 -c 0 -i 65 -a 0 -x {0.0 1.0 65 ------- null}
r -t 0.446137903951703 -s 0 -d 1 -p poisson -e 210 -c 0 -i 66 -a 0 -x {0.0 1.0 66 ------- null}
r -t 0.447817903951704 -s 0 -d 1 -p poisson -e 210 -c 0 -i 67 -a 0 -x {0.0 1.0 67 ------- null}
r -t 0.449497903951704 -s 0 -d 1 -p poisson -e 210 -c 0 -i 68 -a 0 -x {0.0 1.0 68 ------- null}
r -t 0.451177903951704 -s 0 -d 1 -p poisson -e 210 -c 0 -i 69 -a 0 -x {0.0 1.0 69 ------- null}
r -t 0.452857903951704 -s 0 -d 1 -p poisson -e 210 -c 0 -i 70 -a 0 -x {0.0 1.0 70 ------- null}
r -t 0.453097903951704 -s 0 -d 1 -p poisson -e 30 -c 0 -i 71 -a 0 -x {0.0 1.0 71 ------- null}
+ -t 0.458760869707513 -s 0 -d 1 -p poisson -e 210 -c 0 -i 72 -a 0 -x {0.0 1.0 72 ------- null}
- -t 0.458760869707513 -s 0 -d 1 -p poisson -e 210 -c 0 -i 72 -a 0 -x {0.0 1.0 72 ------- null}
h -t 0.458760869707513 -s 0 -d 1 -p poisson -e 210 -c 0 -i 72 -a 0 -x {0.0 1.0 -1 ------- null}
+ -t 0.458760869707513 -s 0 -d 1 -p poisson -e 210 -c 0 -i 73 -a 0 -x {0.0 1.0 73 ------- null}
+ -t 0.458760869707513 -s 0 -d 1 -p poisson -e 210 -c 0 -i 74 -a 0 -x {0.0 1.0 74 ------- null}
+ -t 0.458760869707513 -s 0 -d 1 -p poisson -e 210 -c 0 -i 75 -a 0 -x {0.0 1.0 75 ------- null}
+ -t 0.458760869707513 -s 0 -d 1 -p poisson -e 210 -c 0 -i 76 -a 0 -x {0.0 1.0 76 ------- null}
+ -t 0.458760869707513 -s 0 -d 1 -p poisson -e 210 -c 0 -i 77 -a 0 -x {0.0 1.0 77 ------- null}
+ -t 0.458760869707513 -s 0 -d 1 -p poisson -e 210 -c 0 -i 78 -a 0 -x {0.0 1.0 78 ------- null}
+ -t 0.458760869707513 -s 0 -d 1 -p poisson -e 30 -c 0 -i 79 -a 0 -x {0.0 1.0 79 ------- null}
- -t 0.460440869707513 -s 0 -d 1 -p poisson -e 210 -c 0 -i 73 -a 0 -x {0.0 1.0 73 ------- null}
h -t 0.460440869707513 -s 0 -d 1 -p poisson -e 210 -c 0 -i 73 -a 0 -x {0.0 1.0 -1 ------- null}
- -t 0.462120869707513 -s 0 -d 1 -p poisson -e 210 -c 0 -i 74 -a 0 -x {0.0 1.0 74 ------- null}
h -t 0.462120869707513 -s 0 -d 1 -p poisson -e 210 -c 0 -i 74 -a 0 -x {0.0 1.0 -1 ------- null}
- -t 0.463800869707513 -s 0 -d 1 -p poisson -e 210 -c 0 -i 75 -a 0 -x {0.0 1.0 75 ------- null}
h -t 0.463800869707513 -s 0 -d 1 -p poisson -e 210 -c 0 -i 75 -a 0 -x {0.0 1.0 -1 ------- null}
- -t 0.465480869707513 -s 0 -d 1 -p poisson -e 210 -c 0 -i 76 -a 0 -x {0.0 1.0 76 ------- null}
h -t 0.465480869707513 -s 0 -d 1 -p poisson -e 210 -c 0 -i 76 -a 0 -x {0.0 1.0 -1 ------- null}
- -t 0.467160869707513 -s 0 -d 1 -p poisson -e 210 -c 0 -i 77 -a 0 -x {0.0 1.0 77 ------- null}
h -t 0.467160869707513 -s 0 -d 1 -p poisson -e 210 -c 0 -i 77 -a 0 -x {0.0 1.0 -1 ------- null}
- -t 0.468840869707513 -s 0 -d 1 -p poisson -e 210 -c 0 -i 78 -a 0 -x {0.0 1.0 78 ------- null}
h -t 0.468840869707513 -s 0 -d 1 -p poisson -e 210 -c 0 -i 78 -a 0 -x {0.0 1.0 -1 ------- null}
+ -t 0.469514355074204 -s 0 -d 1 -p poisson -e 210 -c 0 -i 80 -a 0 -x {0.0 1.0 80 ------- null}
+ -t 0.469514355074204 -s 0 -d 1 -p poisson -e 210 -c 0 -i 81 -a 0 -x {0.0 1.0 81 ------- null}
+ -t 0.469514355074204 -s 0 -d 1 -p poisson -e 210 -c 0 -i 82 -a 0 -x {0.0 1.0 82 ------- null}
+ -t 0.469514355074204 -s 0 -d 1 -p poisson -e 210 -c 0 -i 83 -a 0 -x {0.0 1.0 83 ------- null}
+ -t 0.469514355074204 -s 0 -d 1 -p poisson -e 210 -c 0 -i 84 -a 0 -x {0.0 1.0 84 ------- null}