+ 0 0 1 poisson 210 ------- 0 0.0 1.0 0 0
- 0 0 1 poisson 210 ------- 0 0.0 1.0 0 0
+ 0 0 1 poisson 210 ------- 0 0.0 1.0 1 1
+ 0 0 1 poisson 210 ------- 0 0.0 1.0 2 2
+ 0 0 1 poisson 210 ------- 0 0.0 1.0 3 3
+ 0 0 1 poisson 210 ------- 0 0.0 1.0 4 4
+ 0 0 1 poisson 210 ------- 0 0.0 1.0 5 5
+ 0 0 1 poisson 210 ------- 0 0.0 1.0 6 6
+ 0 0 1 poisson 30 ------- 0 0.0 1.0 7 7
- 0.00168 0 1 poisson 210 ------- 0 0.0 1.0 1 1
- 0.00336 0 1 poisson 210 ------- 0 0.0 1.0 2 2
- 0.00504 0 1 poisson 210 ------- 0 0.0 1.0 3 3
- 0.00672 0 1 poisson 210 ------- 0 0.0 1.0 4 4
- 0.0084 0 1 poisson 210 ------- 0 0.0 1.0 5 5
- 0.01008 0 1 poisson 210 ------- 0 0.0 1.0 6 6
r 0.01168 0 1 poisson 210 ------- 0 0.0 1.0 0 0
- 0.01176 0 1 poisson 30 ------- 0 0.0 1.0 7 7
r 0.01336 0 1 poisson 210 ------- 0 0.0 1.0 1 1
r 0.01504 0 1 poisson 210 ------- 0 0.0 1.0 2 2
r 0.01672 0 1 poisson 210 ------- 0 0.0 1.0 3 3
r 0.0184 0 1 poisson 210 ------- 0 0.0 1.0 4 4
r 0.02008 0 1 poisson 210 ------- 0 0.0 1.0 5 5
r 0.02176 0 1 poisson 210 ------- 0 0.0 1.0 6 6
r 0.022 0 1 poisson 30 ------- 0 0.0 1.0 7 7
+ 0.047927 0 1 poisson 210 ------- 0 0.0 1.0 8 8
- 0.047927 0 1 poisson 210 ------- 0 0.0 1.0 8 8
+ 0.047927 0 1 poisson 210 ------- 0 0.0 1.0 9 9
+ 0.047927 0 1 poisson 210 ------- 0 0.0 1.0 10 10
+ 0.047927 0 1 poisson 210 ------- 0 0.0 1.0 11 11
+ 0.047927 0 1 poisson 210 ------- 0 0.0 1.0 12 12
+ 0.047927 0 1 poisson 210 ------- 0 0.0 1.0 13 13
+ 0.047927 0 1 poisson 210 ------- 0 0.0 1.0 14 14
+ 0.047927 0 1 poisson 30 ------- 0 0.0 1.0 15 15
- 0.049607 0 1 poisson 210 ------- 0 0.0 1.0 9 9
- 0.051287 0 1 poisson 210 ------- 0 0.0 1.0 10 10
+ 0.05145 0 1 poisson 210 ------- 0 0.0 1.0 16 16
+ 0.05145 0 1 poisson 210 ------- 0 0.0 1.0 17 17
+ 0.05145 0 1 poisson 210 ------- 0 0.0 1.0 18 18
+ 0.05145 0 1 poisson 210 ------- 0 0.0 1.0 19 19
+ 0.05145 0 1 poisson 210 ------- 0 0.0 1.0 20 20
+ 0.05145 0 1 poisson 210 ------- 0 0.0 1.0 21 21
+ 0.05145 0 1 poisson 210 ------- 0 0.0 1.0 22 22
+ 0.05145 0 1 poisson 30 ------- 0 0.0 1.0 23 23
- 0.052967 0 1 poisson 210 ------- 0 0.0 1.0 11 11
- 0.054647 0 1 poisson 210 ------- 0 0.0 1.0 12 12
- 0.056327 0 1 poisson 210 ------- 0 0.0 1.0 13 13
- 0.058007 0 1 poisson 210 ------- 0 0.0 1.0 14 14
r 0.059607 0 1 poisson 210 ------- 0 0.0 1.0 8 8
- 0.059687 0 1 poisson 30 ------- 0 0.0 1.0 15 15
- 0.059927 0 1 poisson 210 ------- 0 0.0 1.0 16 16
r 0.061287 0 1 poisson 210 ------- 0 0.0 1.0 9 9
- 0.061607 0 1 poisson 210 ------- 0 0.0 1.0 17 17
r 0.062967 0 1 poisson 210 ------- 0 0.0 1.0 10 10
- 0.063287 0 1 poisson 210 ------- 0 0.0 1.0 18 18
r 0.064647 0 1 poisson 210 ------- 0 0.0 1.0 11 11
- 0.064967 0 1 poisson 210 ------- 0 0.0 1.0 19 19
r 0.066327 0 1 poisson 210 ------- 0 0.0 1.0 12 12
- 0.066647 0 1 poisson 210 ------- 0 0.0 1.0 20 20
r 0.068007 0 1 poisson 210 ------- 0 0.0 1.0 13 13
- 0.068327 0 1 poisson 210 ------- 0 0.0 1.0 21 21
r 0.069687 0 1 poisson 210 ------- 0 0.0 1.0 14 14
r 0.069927 0 1 poisson 30 ------- 0 0.0 1.0 15 15
- 0.070007 0 1 poisson 210 ------- 0 0.0 1.0 22 22
r 0.071607 0 1 poisson 210 ------- 0 0.0 1.0 16 16
- 0.071687 0 1 poisson 30 ------- 0 0.0 1.0 23 23
r 0.073287 0 1 poisson 210 ------- 0 0.0 1.0 17 17
r 0.074967 0 1 poisson 210 ------- 0 0.0 1.0 18 18
r 0.076647 0 1 poisson 210 ------- 0 0.0 1.0 19 19
+ 0.076975 0 1 poisson 210 ------- 0 0.0 1.0 24 24
- 0.076975 0 1 poisson 210 ------- 0 0.0 1.0 24 24
+ 0.076975 0 1 poisson 210 ------- 0 0.0 1.0 25 25
+ 0.076975 0 1 poisson 210 ------- 0 0.0 1.0 26 26
+ 0.076975 0 1 poisson 210 ------- 0 0.0 1.0 27 27
+ 0.076975 0 1 poisson 210 ------- 0 0.0 1.0 28 28
+ 0.076975 0 1 poisson 210 ------- 0 0.0 1.0 29 29
+ 0.076975 0 1 poisson 210 ------- 0 0.0 1.0 30 30
+ 0.076975 0 1 poisson 30 ------- 0 0.0 1.0 31 31
r 0.078327 0 1 poisson 210 ------- 0 0.0 1.0 20 20
- 0.078655 0 1 poisson 210 ------- 0 0.0 1.0 25 25
r 0.080007 0 1 poisson 210 ------- 0 0.0 1.0 21 21
- 0.080335 0 1 poisson 210 ------- 0 0.0 1.0 26 26
r 0.081687 0 1 poisson 210 ------- 0 0.0 1.0 22 22
r 0.081927 0 1 poisson 30 ------- 0 0.0 1.0 23 23
- 0.082015 0 1 poisson 210 ------- 0 0.0 1.0 27 27
- 0.083695 0 1 poisson 210 ------- 0 0.0 1.0 28 28
- 0.085375 0 1 poisson 210 ------- 0 0.0 1.0 29 29
- 0.087055 0 1 poisson 210 ------- 0 0.0 1.0 30 30
r 0.088655 0 1 poisson 210 ------- 0 0.0 1.0 24 24
- 0.088735 0 1 poisson 30 ------- 0 0.0 1.0 31 31
r 0.090335 0 1 poisson 210 ------- 0 0.0 1.0 25 25
+ 0.091549 0 1 poisson 210 ------- 0 0.0 1.0 32 32
- 0.091549 0 1 poisson 210 ------- 0 0.0 1.0 32 32
+ 0.091549 0 1 poisson 210 ------- 0 0.0 1.0 33 33
+ 0.091549 0 1 poisson 210 ------- 0 0.0 1.0 34 34
+ 0.091549 0 1 poisson 210 ------- 0 0.0 1.0 35 35
+ 0.091549 0 1 poisson 210 ------- 0 0.0 1.0 36 36
+ 0.091549 0 1 poisson 210 ------- 0 0.0 1.0 37 37
+ 0.091549 0 1 poisson 210 ------- 0 0.0 1.0 38 38
+ 0.091549 0 1 poisson 30 ------- 0 0.0 1.0 39 39
r 0.092015 0 1 poisson 210 ------- 0 0.0 1.0 26 26
- 0.093229 0 1 poisson 210 ------- 0 0.0 1.0 33 33
r 0.093695 0 1 poisson 210 ------- 0 0.0 1.0 27 27
- 0.094909 0 1 poisson 210 ------- 0 0.0 1.0 34 34
r 0.095375 0 1 poisson 210 ------- 0 0.0 1.0 28 28
+ 0.096459 0 1 poisson 210 ------- 0 0.0 1.0 40 40
+ 0.096459 0 1 poisson 210 ------- 0 0.0 1.0 41 41
+ 0.096459 0 1 poisson 210 ------- 0 0.0 1.0 42 42
+ 0.096459 0 1 poisson 210 ------- 0 0.0 1.0 43 43
+ 0.096459 0 1 poisson 210 ------- 0 0.0 1.0 44 44
+ 0.096459 0 1 poisson 210 ------- 0 0.0 1.0 45 45
+ 0.096459 0 1 poisson 210 ------- 0 0.0 1.0 46 46
+ 0.096459 0 1 poisson 30 ------- 0 0.0 1.0 47 47
- 0.096589 0 1 poisson 210 ------- 0 0.0 1.0 35 35
r 0.097055 0 1 poisson 210 ------- 0 0.0 1.0 29 29
+ 0.097804 0 1 poisson 210 ------- 0 0.0 1.0 48 48
+ 0.097804 0 1 poisson 210 ------- 0 0.0 1.0 49 49
+ 0.097804 0 1 poisson 210 ------- 0 0.0 1.0 50 50
+ 0.097804 0 1 poisson 210 ------- 0 0.0 1.0 51 51
+ 0.097804 0 1 poisson 210 ------- 0 0.0 1.0 52 52
+ 0.097804 0 1 poisson 210 ------- 0 0.0 1.0 53 53
+ 0.097804 0 1 poisson 210 ------- 0 0.0 1.0 54 54
+ 0.097804 0 1 poisson 30 ------- 0 0.0 1.0 55 55
- 0.098269 0 1 poisson 210 ------- 0 0.0 1.0 36 36
r 0.098735 0 1 poisson 210 ------- 0 0.0 1.0 30 30
r 0.098975 0 1 poisson 30 ------- 0 0.0 1.0 31 31
- 0.099949 0 1 poisson 210 ------- 0 0.0 1.0 37 37
- 0.101629 0 1 poisson 210 ------- 0 0.0 1.0 38 38
r 0.103229 0 1 poisson 210 ------- 0 0.0 1.0 32 32
- 0.103309 0 1 poisson 30 ------- 0 0.0 1.0 39 39
- 0.103549 0 1 poisson 210 ------- 0 0.0 1.0 40 40
+ 0.104774 0 1 poisson 210 ------- 0 0.0 1.0 56 56
+ 0.104774 0 1 poisson 210 ------- 0 0.0 1.0 57 57
+ 0.104774 0 1 poisson 210 ------- 0 0.0 1.0 58 58
+ 0.104774 0 1 poisson 210 ------- 0 0.0 1.0 59 59
+ 0.104774 0 1 poisson 210 ------- 0 0.0 1.0 60 60
+ 0.104774 0 1 poisson 210 ------- 0 0.0 1.0 61 61
+ 0.104774 0 1 poisson 210 ------- 0 0.0 1.0 62 62
+ 0.104774 0 1 poisson 30 ------- 0 0.0 1.0 63 63
r 0.104909 0 1 poisson 210 ------- 0 0.0 1.0 33 33
- 0.105229 0 1 poisson 210 ------- 0 0.0 1.0 41 41
+ 0.105991 0 1 poisson 210 ------- 0 0.0 1.0 64 64
+ 0.105991 0 1 poisson 210 ------- 0 0.0 1.0 65 65
+ 0.105991 0 1 poisson 210 ------- 0 0.0 1.0 66 66
+ 0.105991 0 1 poisson 210 ------- 0 0.0 1.0 67 67
+ 0.105991 0 1 poisson 210 ------- 0 0.0 1.0 68 68
+ 0.105991 0 1 poisson 210 ------- 0 0.0 1.0 69 69
+ 0.105991 0 1 poisson 210 ------- 0 0.0 1.0 70 70
+ 0.105991 0 1 poisson 30 ------- 0 0.0 1.0 71 71
r 0.106589 0 1 poisson 210 ------- 0 0.0 1.0 34 34
- 0.106909 0 1 poisson 210 ------- 0 0.0 1.0 42 42
r 0.108269 0 1 poisson 210 ------- 0 0.0 1.0 35 35
- 0.108589 0 1 poisson 210 ------- 0 0.0 1.0 43 43
r 0.109949 0 1 poisson 210 ------- 0 0.0 1.0 36 36
- 0.110269 0 1 poisson 210 ------- 0 0.0 1.0 44 44
r 0.111629 0 1 poisson 210 ------- 0 0.0 1.0 37 37
- 0.111949 0 1 poisson 210 ------- 0 0.0 1.0 45 45
r 0.113309 0 1 poisson 210 ------- 0 0.0 1.0 38 38
r 0.113549 0 1 poisson 30 ------- 0 0.0 1.0 39 39
- 0.113629 0 1 poisson 210 ------- 0 0.0 1.0 46 46
+ 0.11469 0 1 poisson 210 ------- 0 0.0 1.0 72 72
+ 0.11469 0 1 poisson 210 ------- 0 0.0 1.0 73 73
+ 0.11469 0 1 poisson 210 ------- 0 0.0 1.0 74 74
+ 0.11469 0 1 poisson 210 ------- 0 0.0 1.0 75 75
+ 0.11469 0 1 poisson 210 ------- 0 0.0 1.0 76 76
+ 0.11469 0 1 poisson 210 ------- 0 0.0 1.0 77 77
+ 0.11469 0 1 poisson 210 ------- 0 0.0 1.0 78 78
+ 0.11469 0 1 poisson 30 ------- 0 0.0 1.0 79 79
r 0.115229 0 1 poisson 210 ------- 0 0.0 1.0 40 40
- 0.115309 0 1 poisson 30 ------- 0 0.0 1.0 47 47
- 0.115549 0 1 poisson 210 ------- 0 0.0 1.0 48 48
r 0.116909 0 1 poisson 210 ------- 0 0.0 1.0 41 41
- 0.117229 0 1 poisson 210 ------- 0 0.0 1.0 49 49
+ 0.117379 0 1 poisson 210 ------- 0 0.0 1.0 80 80
+ 0.117379 0 1 poisson 210 ------- 0 0.0 1.0 81 81
+ 0.117379 0 1 poisson 210 ------- 0 0.0 1.0 82 82
+ 0.117379 0 1 poisson 210 ------- 0 0.0 1.0 83 83
+ 0.117379 0 1 poisson 210 ------- 0 0.0 1.0 84 84
+ 0.117379 0 1 poisson 210 ------- 0 0.0 1.0 85 85
+ 0.117379 0 1 poisson 210 ------- 0 0.0 1.0 86 86
+ 0.117379 0 1 poisson 30 ------- 0 0.0 1.0 87 87
r 0.118589 0 1 poisson 210 ------- 0 0.0 1.0 42 42
- 0.118909 0 1 poisson 210 ------- 0 0.0 1.0 50 50
r 0.120269 0 1 poisson 210 ------- 0 0.0 1.0 43 43
- 0.120589 0 1 poisson 210 ------- 0 0.0 1.0 51 51
r 0.121949 0 1 poisson 210 ------- 0 0.0 1.0 44 44
- 0.122269 0 1 poisson 210 ------- 0 0.0 1.0 52 52
r 0.123629 0 1 poisson 210 ------- 0 0.0 1.0 45 45
- 0.123949 0 1 poisson 210 ------- 0 0.0 1.0 53 53
+ 0.124424 0 1 poisson 210 ------- 0 0.0 1.0 88 88
+ 0.124424 0 1 poisson 210 ------- 0 0.0 1.0 89 89
+ 0.124424 0 1 poisson 210 ------- 0 0.0 1.0 90 90
+ 0.124424 0 1 poisson 210 ------- 0 0.0 1.0 91 91
+ 0.124424 0 1 poisson 210 ------- 0 0.0 1.0 92 92
+ 0.124424 0 1 poisson 210 ------- 0 0.0 1.0 93 93
+ 0.124424 0 1 poisson 210 ------- 0 0.0 1.0 94 94
+ 0.124424 0 1 poisson 30 ------- 0 0.0 1.0 95 95
r 0.125309 0 1 poisson 210 ------- 0 0.0 1.0 46 46
+ 0.125496 0 1 poisson 210 ------- 0 0.0 1.0 96 96
+ 0.125496 0 1 poisson 210 ------- 0 0.0 1.0 97 97
+ 0.125496 0 1 poisson 210 ------- 0 0.0 1.0 98 98
+ 0.125496 0 1 poisson 210 ------- 0 0.0 1.0 99 99
+ 0.125496 0 1 poisson 210 ------- 0 0.0 1.0 100 100
+ 0.125496 0 1 poisson 210 ------- 0 0.0 1.0 101 101
+ 0.125496 0 1 poisson 210 ------- 0 0.0 1.0 102 102
+ 0.125496 0 1 poisson 30 ------- 0 0.0 1.0 103 103
d 0.125496 0 1 poisson 30 ------- 0 0.0 1.0 103 103
r 0.125549 0 1 poisson 30 ------- 0 0.0 1.0 47 47
- 0.125629 0 1 poisson 210 ------- 0 0.0 1.0 54 54
r 0.127229 0 1 poisson 210 ------- 0 0.0 1.0 48 48
- 0.127309 0 1 poisson 30 ------- 0 0.0 1.0 55 55
- 0.127549 0 1 poisson 210 ------- 0 0.0 1.0 56 56
r 0.128909 0 1 poisson 210 ------- 0 0.0 1.0 49 49
- 0.129229 0 1 poisson 210 ------- 0 0.0 1.0 57 57
r 0.130589 0 1 poisson 210 ------- 0 0.0 1.0 50 50
- 0.130909 0 1 poisson 210 ------- 0 0.0 1.0 58 58
r 0.132269 0 1 poisson 210 ------- 0 0.0 1.0 51 51
- 0.132589 0 1 poisson 210 ------- 0 0.0 1.0 59 59
r 0.133949 0 1 poisson 210 ------- 0 0.0 1.0 52 52
- 0.134269 0 1 poisson 210 ------- 0 0.0 1.0 60 60
r 0.135629 0 1 poisson 210 ------- 0 0.0 1.0 53 53
- 0.135949 0 1 poisson 210 ------- 0 0.0 1.0 61 61
+ 0.136338 0 1 poisson 210 ------- 0 0.0 1.0 104 104
+ 0.136338 0 1 poisson 210 ------- 0 0.0 1.0 105 105
+ 0.136338 0 1 poisson 210 ------- 0 0.0 1.0 106 106
+ 0.136338 0 1 poisson 210 ------- 0 0.0 1.0 107 107
+ 0.136338 0 1 poisson 210 ------- 0 0.0 1.0 108 108
+ 0.136338 0 1 poisson 210 ------- 0 0.0 1.0 109 109
+ 0.136338 0 1 poisson 210 ------- 0 0.0 1.0 110 110
+ 0.136338 0 1 poisson 30 ------- 0 0.0 1.0 111 111
r 0.137309 0 1 poisson 210 ------- 0 0.0 1.0 54 54
r 0.137549 0 1 poisson 30 ------- 0 0.0 1.0 55 55
- 0.137629 0 1 poisson 210 ------- 0 0.0 1.0 62 62
r 0.139229 0 1 poisson 210 ------- 0 0.0 1.0 56 56
- 0.139309 0 1 poisson 30 ------- 0 0.0 1.0 63 63
- 0.139549 0 1 poisson 210 ------- 0 0.0 1.0 64 64
r 0.140909 0 1 poisson 210 ------- 0 0.0 1.0 57 57
- 0.141229 0 1 poisson 210 ------- 0 0.0 1.0 65 65
r 0.142589 0 1 poisson 210 ------- 0 0.0 1.0 58 58
- 0.142909 0 1 poisson 210 ------- 0 0.0 1.0 66 66
r 0.144269 0 1 poisson 210 ------- 0 0.0 1.0 59 59
- 0.144589 0 1 poisson 210 ------- 0 0.0 1.0 67 67
r 0.145949 0 1 poisson 210 ------- 0 0.0 1.0 60 60
- 0.146269 0 1 poisson 210 ------- 0 0.0 1.0 68 68
r 0.147629 0 1 poisson 210 ------- 0 0.0 1.0 61 61
- 0.147949 0 1 poisson 210 ------- 0 0.0 1.0 69 69
r 0.149309 0 1 poisson 210 ------- 0 0.0 1.0 62 62
r 0.149549 0 1 poisson 30 ------- 0 0.0 1.0 63 63
- 0.149629 0 1 poisson 210 ------- 0 0.0 1.0 70 70
r 0.151229 0 1 poisson 210 ------- 0 0.0 1.0 64 64
- 0.151309 0 1 poisson 30 ------- 0 0.0 1.0 71 71
- 0.151549 0 1 poisson 210 ------- 0 0.0 1.0 72 72
r 0.152909 0 1 poisson 210 ------- 0 0.0 1.0 65 65
- 0.153229 0 1 poisson 210 ------- 0 0.0 1.0 73 73
r 0.154589 0 1 poisson 210 ------- 0 0.0 1.0 66 66
- 0.154909 0 1 poisson 210 ------- 0 0.0 1.0 74 74
+ 0.155246 0 1 poisson 210 ------- 0 0.0 1.0 112 112
+ 0.155246 0 1 poisson 210 ------- 0 0.0 1.0 113 113
+ 0.155246 0 1 poisson 210 ------- 0 0.0 1.0 114 114
+ 0.155246 0 1 poisson 210 ------- 0 0.0 1.0 115 115
+ 0.155246 0 1 poisson 210 ------- 0 0.0 1.0 116 116
+ 0.155246 0 1 poisson 210 ------- 0 0.0 1.0 117 117
+ 0.155246 0 1 poisson 210 ------- 0 0.0 1.0 118 118
+ 0.155246 0 1 poisson 30 ------- 0 0.0 1.0 119 119
r 0.156269 0 1 poisson 210 ------- 0 0.0 1.0 67 67
- 0.156589 0 1 poisson 210 ------- 0 0.0 1.0 75 75
+ 0.157923 0 1 poisson 210 ------- 0 0.0 1.0 120 120
+ 0.157923 0 1 poisson 210 ------- 0 0.0 1.0 121 121
+ 0.157923 0 1 poisson 210 ------- 0 0.0 1.0 122 122
+ 0.157923 0 1 poisson 210 ------- 0 0.0 1.0 123 123
+ 0.157923 0 1 poisson 210 ------- 0 0.0 1.0 124 124
+ 0.157923 0 1 poisson 210 ------- 0 0.0 1.0 125 125
+ 0.157923 0 1 poisson 210 ------- 0 0.0 1.0 126 126
d 0.157923 0 1 poisson 210 ------- 0 0.0 1.0 126 126
+ 0.157923 0 1 poisson 30 ------- 0 0.0 1.0 127 127
d 0.157923 0 1 poisson 30 ------- 0 0.0 1.0 127 127
r 0.157949 0 1 poisson 210 ------- 0 0.0 1.0 68 68
- 0.158269 0 1 poisson 210 ------- 0 0.0 1.0 76 76
r 0.159629 0 1 poisson 210 ------- 0 0.0 1.0 69 69
- 0.159949 0 1 poisson 210 ------- 0 0.0 1.0 77 77
r 0.161309 0 1 poisson 210 ------- 0 0.0 1.0 70 70
r 0.161549 0 1 poisson 30 ------- 0 0.0 1.0 71 71
- 0.161629 0 1 poisson 210 ------- 0 0.0 1.0 78 78
r 0.163229 0 1 poisson 210 ------- 0 0.0 1.0 72 72
- 0.163309 0 1 poisson 30 ------- 0 0.0 1.0 79 79
- 0.163549 0 1 poisson 210 ------- 0 0.0 1.0 80 80
r 0.164909 0 1 poisson 210 ------- 0 0.0 1.0 73 73
- 0.165229 0 1 poisson 210 ------- 0 0.0 1.0 81 81
r 0.166589 0 1 poisson 210 ------- 0 0.0 1.0 74 74
- 0.166909 0 1 poisson 210 ------- 0 0.0 1.0 82 82
r 0.168269 0 1 poisson 210 ------- 0 0.0 1.0 75 75
- 0.168589 0 1 poisson 210 ------- 0 0.0 1.0 83 83
r 0.169949 0 1 poisson 210 ------- 0 0.0 1.0 76 76
- 0.170269 0 1 poisson 210 ------- 0 0.0 1.0 84 84
+ 0.170963 0 1 poisson 210 ------- 0 0.0 1.0 128 128
+ 0.170963 0 1 poisson 210 ------- 0 0.0 1.0 129 129
+ 0.170963 0 1 poisson 210 ------- 0 0.0 1.0 130 130
+ 0.170963 0 1 poisson 210 ------- 0 0.0 1.0 131 131
+ 0.170963 0 1 poisson 210 ------- 0 0.0 1.0 132 132
+ 0.170963 0 1 poisson 210 ------- 0 0.0 1.0 133 133
+ 0.170963 0 1 poisson 210 ------- 0 0.0 1.0 134 134
+ 0.170963 0 1 poisson 30 ------- 0 0.0 1.0 135 135
r 0.171629 0 1 poisson 210 ------- 0 0.0 1.0 77 77
+ 0.171869 0 1 poisson 210 ------- 0 0.0 1.0 136 136
+ 0.171869 0 1 poisson 210 ------- 0 0.0 1.0 137 137
d 0.171869 0 1 poisson 210 ------- 0 0.0 1.0 137 137
+ 0.171869 0 1 poisson 210 ------- 0 0.0 1.0 138 138
d 0.171869 0 1 poisson 210 ------- 0 0.0 1.0 138 138
+ 0.171869 0 1 poisson 210 ------- 0 0.0 1.0 139 139
d 0.171869 0 1 poisson 210 ------- 0 0.0 1.0 139 139
+ 0.171869 0 1 poisson 210 ------- 0 0.0 1.0 140 140
d 0.171869 0 1 poisson 210 ------- 0 0.0 1.0 140 140
+ 0.171869 0 1 poisson 210 ------- 0 0.0 1.0 141 141
d 0.171869 0 1 poisson 210 ------- 0 0.0 1.0 141 141
+ 0.171869 0 1 poisson 210 ------- 0 0.0 1.0 142 142
d 0.171869 0 1 poisson 210 ------- 0 0.0 1.0 142 142
+ 0.171869 0 1 poisson 30 ------- 0 0.0 1.0 143 143
d 0.171869 0 1 poisson 30 ------- 0 0.0 1.0 143 143
- 0.171949 0 1 poisson 210 ------- 0 0.0 1.0 85 85
r 0.173309 0 1 poisson 210 ------- 0 0.0 1.0 78 78
r 0.173549 0 1 poisson 30 ------- 0 0.0 1.0 79 79
- 0.173629 0 1 poisson 210 ------- 0 0.0 1.0 86 86
r 0.175229 0 1 poisson 210 ------- 0 0.0 1.0 80 80
- 0.175309 0 1 poisson 30 ------- 0 0.0 1.0 87 87
- 0.175549 0 1 poisson 210 ------- 0 0.0 1.0 88 88
r 0.176909 0 1 poisson 210 ------- 0 0.0 1.0 81 81
+ 0.177022 0 1 poisson 210 ------- 0 0.0 1.0 144 144
+ 0.177022 0 1 poisson 210 ------- 0 0.0 1.0 145 145
+ 0.177022 0 1 poisson 210 ------- 0 0.0 1.0 146 146
+ 0.177022 0 1 poisson 210 ------- 0 0.0 1.0 147 147
+ 0.177022 0 1 poisson 210 ------- 0 0.0 1.0 148 148
d 0.177022 0 1 poisson 210 ------- 0 0.0 1.0 148 148
+ 0.177022 0 1 poisson 210 ------- 0 0.0 1.0 149 149
d 0.177022 0 1 poisson 210 ------- 0 0.0 1.0 149 149
+ 0.177022 0 1 poisson 210 ------- 0 0.0 1.0 150 150
d 0.177022 0 1 poisson 210 ------- 0 0.0 1.0 150 150
+ 0.177022 0 1 poisson 30 ------- 0 0.0 1.0 151 151
d 0.177022 0 1 poisson 30 ------- 0 0.0 1.0 151 151
- 0.177229 0 1 poisson 210 ------- 0 0.0 1.0 89 89
r 0.178589 0 1 poisson 210 ------- 0 0.0 1.0 82 82
- 0.178909 0 1 poisson 210 ------- 0 0.0 1.0 90 90
r 0.180269 0 1 poisson 210 ------- 0 0.0 1.0 83 83
- 0.180589 0 1 poisson 210 ------- 0 0.0 1.0 91 91
r 0.181949 0 1 poisson 210 ------- 0 0.0 1.0 84 84
- 0.182269 0 1 poisson 210 ------- 0 0.0 1.0 92 92
r 0.183629 0 1 poisson 210 ------- 0 0.0 1.0 85 85
- 0.183949 0 1 poisson 210 ------- 0 0.0 1.0 93 93
r 0.185309 0 1 poisson 210 ------- 0 0.0 1.0 86 86
r 0.185549 0 1 poisson 30 ------- 0 0.0 1.0 87 87
- 0.185629 0 1 poisson 210 ------- 0 0.0 1.0 94 94
r 0.187229 0 1 poisson 210 ------- 0 0.0 1.0 88 88
- 0.187309 0 1 poisson 30 ------- 0 0.0 1.0 95 95
+ 0.187487 0 1 poisson 210 ------- 0 0.0 1.0 152 152
+ 0.187487 0 1 poisson 210 ------- 0 0.0 1.0 153 153
+ 0.187487 0 1 poisson 210 ------- 0 0.0 1.0 154 154
+ 0.187487 0 1 poisson 210 ------- 0 0.0 1.0 155 155
+ 0.187487 0 1 poisson 210 ------- 0 0.0 1.0 156 156
+ 0.187487 0 1 poisson 210 ------- 0 0.0 1.0 157 157
+ 0.187487 0 1 poisson 210 ------- 0 0.0 1.0 158 158
+ 0.187487 0 1 poisson 30 ------- 0 0.0 1.0 159 159
d 0.187487 0 1 poisson 30 ------- 0 0.0 1.0 159 159
- 0.187549 0 1 poisson 210 ------- 0 0.0 1.0 96 96
r 0.188909 0 1 poisson 210 ------- 0 0.0 1.0 89 89
- 0.189229 0 1 poisson 210 ------- 0 0.0 1.0 97 97
r 0.190589 0 1 poisson 210 ------- 0 0.0 1.0 90 90
- 0.190909 0 1 poisson 210 ------- 0 0.0 1.0 98 98
r 0.192269 0 1 poisson 210 ------- 0 0.0 1.0 91 91
- 0.192589 0 1 poisson 210 ------- 0 0.0 1.0 99 99
r 0.193949 0 1 poisson 210 ------- 0 0.0 1.0 92 92
- 0.194269 0 1 poisson 210 ------- 0 0.0 1.0 100 100
r 0.195629 0 1 poisson 210 ------- 0 0.0 1.0 93 93
- 0.195949 0 1 poisson 210 ------- 0 0.0 1.0 101 101
r 0.197309 0 1 poisson 210 ------- 0 0.0 1.0 94 94
r 0.197549 0 1 poisson 30 ------- 0 0.0 1.0 95 95
- 0.197629 0 1 poisson 210 ------- 0 0.0 1.0 102 102
r 0.199229 0 1 poisson 210 ------- 0 0.0 1.0 96 96
- 0.199309 0 1 poisson 210 ------- 0 0.0 1.0 104 104
r 0.200909 0 1 poisson 210 ------- 0 0.0 1.0 97 97
- 0.200989 0 1 poisson 210 ------- 0 0.0 1.0 105 105
+ 0.201665 0 1 poisson 210 ------- 0 0.0 1.0 160 160
+ 0.201665 0 1 poisson 210 ------- 0 0.0 1.0 161 161
+ 0.201665 0 1 poisson 210 ------- 0 0.0 1.0 162 162
+ 0.201665 0 1 poisson 210 ------- 0 0.0 1.0 163 163
+ 0.201665 0 1 poisson 210 ------- 0 0.0 1.0 164 164
+ 0.201665 0 1 poisson 210 ------- 0 0.0 1.0 165 165
+ 0.201665 0 1 poisson 210 ------- 0 0.0 1.0 166 166
+ 0.201665 0 1 poisson 30 ------- 0 0.0 1.0 167 167
r 0.202589 0 1 poisson 210 ------- 0 0.0 1.0 98 98
- 0.202669 0 1 poisson 210 ------- 0 0.0 1.0 106 106
+ 0.202951 0 1 poisson 210 ------- 0 0.0 1.0 168 168
+ 0.202951 0 1 poisson 210 ------- 0 0.0 1.0 169 169
+ 0.202951 0 1 poisson 210 ------- 0 0.0 1.0 170 170
d 0.202951 0 1 poisson 210 ------- 0 0.0 1.0 170 170
+ 0.202951 0 1 poisson 210 ------- 0 0.0 1.0 171 171
d 0.202951 0 1 poisson 210 ------- 0 0.0 1.0 171 171
+ 0.202951 0 1 poisson 210 ------- 0 0.0 1.0 172 172
d 0.202951 0 1 poisson 210 ------- 0 0.0 1.0 172 172
+ 0.202951 0 1 poisson 210 ------- 0 0.0 1.0 173 173
d 0.202951 0 1 poisson 210 ------- 0 0.0 1.0 173 173
+ 0.202951 0 1 poisson 210 ------- 0 0.0 1.0 174 174
d 0.202951 0 1 poisson 210 ------- 0 0.0 1.0 174 174
+ 0.202951 0 1 poisson 30 ------- 0 0.0 1.0 175 175
d 0.202951 0 1 poisson 30 ------- 0 0.0 1.0 175 175
r 0.204269 0 1 poisson 210 ------- 0 0.0 1.0 99 99
- 0.204349 0 1 poisson 210 ------- 0 0.0 1.0 107 107
r 0.205949 0 1 poisson 210 ------- 0 0.0 1.0 100 100
- 0.206029 0 1 poisson 210 ------- 0 0.0 1.0 108 108
r 0.207629 0 1 poisson 210 ------- 0 0.0 1.0 101 101
- 0.207709 0 1 poisson 210 ------- 0 0.0 1.0 109 109
+ 0.209272 0 1 poisson 210 ------- 0 0.0 1.0 176 176
+ 0.209272 0 1 poisson 210 ------- 0 0.0 1.0 177 177
+ 0.209272 0 1 poisson 210 ------- 0 0.0 1.0 178 178
+ 0.209272 0 1 poisson 210 ------- 0 0.0 1.0 179 179
d 0.209272 0 1 poisson 210 ------- 0 0.0 1.0 179 179
+ 0.209272 0 1 poisson 210 ------- 0 0.0 1.0 180 180
d 0.209272 0 1 poisson 210 ------- 0 0.0 1.0 180 180
+ 0.209272 0 1 poisson 210 ------- 0 0.0 1.0 181 181
d 0.209272 0 1 poisson 210 ------- 0 0.0 1.0 181 181
+ 0.209272 0 1 poisson 210 ------- 0 0.0 1.0 182 182
d 0.209272 0 1 poisson 210 ------- 0 0.0 1.0 182 182
+ 0.209272 0 1 poisson 30 ------- 0 0.0 1.0 183 183
d 0.209272 0 1 poisson 30 ------- 0 0.0 1.0 183 183
r 0.209309 0 1 poisson 210 ------- 0 0.0 1.0 102 102
- 0.209389 0 1 poisson 210 ------- 0 0.0 1.0 110 110
r 0.210989 0 1 poisson 210 ------- 0 0.0 1.0 104 104
- 0.211069 0 1 poisson 30 ------- 0 0.0 1.0 111 111
- 0.211309 0 1 poisson 210 ------- 0 0.0 1.0 112 112
r 0.212669 0 1 poisson 210 ------- 0 0.0 1.0 105 105
- 0.212989 0 1 poisson 210 ------- 0 0.0 1.0 113 113
r 0.214349 0 1 poisson 210 ------- 0 0.0 1.0 106 106
- 0.214669 0 1 poisson 210 ------- 0 0.0 1.0 114 114
r 0.216029 0 1 poisson 210 ------- 0 0.0 1.0 107 107
- 0.216349 0 1 poisson 210 ------- 0 0.0 1.0 115 115
+ 0.217398 0 1 poisson 210 ------- 0 0.0 1.0 184 184
+ 0.217398 0 1 poisson 210 ------- 0 0.0 1.0 185 185
+ 0.217398 0 1 poisson 210 ------- 0 0.0 1.0 186 186
+ 0.217398 0 1 poisson 210 ------- 0 0.0 1.0 187 187
+ 0.217398 0 1 poisson 210 ------- 0 0.0 1.0 188 188
+ 0.217398 0 1 poisson 210 ------- 0 0.0 1.0 189 189
+ 0.217398 0 1 poisson 210 ------- 0 0.0 1.0 190 190
d 0.217398 0 1 poisson 210 ------- 0 0.0 1.0 190 190
+ 0.217398 0 1 poisson 30 ------- 0 0.0 1.0 191 191
d 0.217398 0 1 poisson 30 ------- 0 0.0 1.0 191 191
r 0.217709 0 1 poisson 210 ------- 0 0.0 1.0 108 108
- 0.218029 0 1 poisson 210 ------- 0 0.0 1.0 116 116
r 0.219389 0 1 poisson 210 ------- 0 0.0 1.0 109 109
- 0.219709 0 1 poisson 210 ------- 0 0.0 1.0 117 117
r 0.221069 0 1 poisson 210 ------- 0 0.0 1.0 110 110
r 0.221309 0 1 poisson 30 ------- 0 0.0 1.0 111 111
- 0.221389 0 1 poisson 210 ------- 0 0.0 1.0 118 118
+ 0.222767 0 1 poisson 210 ------- 0 0.0 1.0 192 192
+ 0.222767 0 1 poisson 210 ------- 0 0.0 1.0 193 193
+ 0.222767 0 1 poisson 210 ------- 0 0.0 1.0 194 194
+ 0.222767 0 1 poisson 210 ------- 0 0.0 1.0 195 195
d 0.222767 0 1 poisson 210 ------- 0 0.0 1.0 195 195
+ 0.222767 0 1 poisson 210 ------- 0 0.0 1.0 196 196
d 0.222767 0 1 poisson 210 ------- 0 0.0 1.0 196 196
+ 0.222767 0 1 poisson 210 ------- 0 0.0 1.0 197 197
d 0.222767 0 1 poisson 210 ------- 0 0.0 1.0 197 197
+ 0.222767 0 1 poisson 210 ------- 0 0.0 1.0 198 198
d 0.222767 0 1 poisson 210 ------- 0 0.0 1.0 198 198
+ 0.222767 0 1 poisson 30 ------- 0 0.0 1.0 199 199
d 0.222767 0 1 poisson 30 ------- 0 0.0 1.0 199 199
r 0.222989 0 1 poisson 210 ------- 0 0.0 1.0 112 112
- 0.223069 0 1 poisson 30 ------- 0 0.0 1.0 119 119
- 0.223309 0 1 poisson 210 ------- 0 0.0 1.0 120 120
r 0.224669 0 1 poisson 210 ------- 0 0.0 1.0 113 113
- 0.224989 0 1 poisson 210 ------- 0 0.0 1.0 121 121
r 0.226349 0 1 poisson 210 ------- 0 0.0 1.0 114 114
- 0.226669 0 1 poisson 210 ------- 0 0.0 1.0 122 122
+ 0.226707 0 1 poisson 210 ------- 0 0.0 1.0 200 200
+ 0.226707 0 1 poisson 210 ------- 0 0.0 1.0 201 201
+ 0.226707 0 1 poisson 210 ------- 0 0.0 1.0 202 202
+ 0.226707 0 1 poisson 210 ------- 0 0.0 1.0 203 203
+ 0.226707 0 1 poisson 210 ------- 0 0.0 1.0 204 204
d 0.226707 0 1 poisson 210 ------- 0 0.0 1.0 204 204
+ 0.226707 0 1 poisson 210 ------- 0 0.0 1.0 205 205
d 0.226707 0 1 poisson 210 ------- 0 0.0 1.0 205 205
+ 0.226707 0 1 poisson 210 ------- 0 0.0 1.0 206 206
d 0.226707 0 1 poisson 210 ------- 0 0.0 1.0 206 206
+ 0.226707 0 1 poisson 30 ------- 0 0.0 1.0 207 207
d 0.226707 0 1 poisson 30 ------- 0 0.0 1.0 207 207
r 0.228029 0 1 poisson 210 ------- 0 0.0 1.0 115 115
- 0.228349 0 1 poisson 210 ------- 0 0.0 1.0 123 123
r 0.229709 0 1 poisson 210 ------- 0 0.0 1.0 116 116
- 0.230029 0 1 poisson 210 ------- 0 0.0 1.0 124 124
+ 0.231286 0 1 poisson 210 ------- 0 0.0 1.0 208 208
+ 0.231286 0 1 poisson 210 ------- 0 0.0 1.0 209 209
+ 0.231286 0 1 poisson 210 ------- 0 0.0 1.0 210 210
d 0.231286 0 1 poisson 210 ------- 0 0.0 1.0 210 210
+ 0.231286 0 1 poisson 210 ------- 0 0.0 1.0 211 211
d 0.231286 0 1 poisson 210 ------- 0 0.0 1.0 211 211
+ 0.231286 0 1 poisson 210 ------- 0 0.0 1.0 212 212
d 0.231286 0 1 poisson 210 ------- 0 0.0 1.0 212 212
+ 0.231286 0 1 poisson 210 ------- 0 0.0 1.0 213 213
d 0.231286 0 1 poisson 210 ------- 0 0.0 1.0 213 213
+ 0.231286 0 1 poisson 210 ------- 0 0.0 1.0 214 214
d 0.231286 0 1 poisson 210 ------- 0 0.0 1.0 214 214
+ 0.231286 0 1 poisson 30 ------- 0 0.0 1.0 215 215
d 0.231286 0 1 poisson 30 ------- 0 0.0 1.0 215 215
r 0.231389 0 1 poisson 210 ------- 0 0.0 1.0 117 117
- 0.231709 0 1 poisson 210 ------- 0 0.0 1.0 125 125
r 0.233069 0 1 poisson 210 ------- 0 0.0 1.0 118 118
r 0.233309 0 1 poisson 30 ------- 0 0.0 1.0 119 119
- 0.233389 0 1 poisson 210 ------- 0 0.0 1.0 128 128
+ 0.233493 0 1 poisson 210 ------- 0 0.0 1.0 216 216
+ 0.233493 0 1 poisson 210 ------- 0 0.0 1.0 217 217
+ 0.233493 0 1 poisson 210 ------- 0 0.0 1.0 218 218
d 0.233493 0 1 poisson 210 ------- 0 0.0 1.0 218 218
+ 0.233493 0 1 poisson 210 ------- 0 0.0 1.0 219 219
d 0.233493 0 1 poisson 210 ------- 0 0.0 1.0 219 219
+ 0.233493 0 1 poisson 210 ------- 0 0.0 1.0 220 220
d 0.233493 0 1 poisson 210 ------- 0 0.0 1.0 220 220
+ 0.233493 0 1 poisson 210 ------- 0 0.0 1.0 221 221
d 0.233493 0 1 poisson 210 ------- 0 0.0 1.0 221 221
+ 0.233493 0 1 poisson 210 ------- 0 0.0 1.0 222 222
d 0.233493 0 1 poisson 210 ------- 0 0.0 1.0 222 222
+ 0.233493 0 1 poisson 30 ------- 0 0.0 1.0 223 223
d 0.233493 0 1 poisson 30 ------- 0 0.0 1.0 223 223
+ 0.234383 0 1 poisson 210 ------- 0 0.0 1.0 224 224
d 0.234383 0 1 poisson 210 ------- 0 0.0 1.0 224 224
+ 0.234383 0 1 poisson 210 ------- 0 0.0 1.0 225 225
d 0.234383 0 1 poisson 210 ------- 0 0.0 1.0 225 225
+ 0.234383 0 1 poisson 210 ------- 0 0.0 1.0 226 226
d 0.234383 0 1 poisson 210 ------- 0 0.0 1.0 226 226
+ 0.234383 0 1 poisson 210 ------- 0 0.0 1.0 227 227
d 0.234383 0 1 poisson 210 ------- 0 0.0 1.0 227 227
+ 0.234383 0 1 poisson 210 ------- 0 0.0 1.0 228 228
d 0.234383 0 1 poisson 210 ------- 0 0.0 1.0 228 228
+ 0.234383 0 1 poisson 210 ------- 0 0.0 1.0 229 229
d 0.234383 0 1 poisson 210 ------- 0 0.0 1.0 229 229
+ 0.234383 0 1 poisson 210 ------- 0 0.0 1.0 230 230
d 0.234383 0 1 poisson 210 ------- 0 0.0 1.0 230 230
+ 0.234383 0 1 poisson 30 ------- 0 0.0 1.0 231 231
d 0.234383 0 1 poisson 30 ------- 0 0.0 1.0 231 231
r 0.234989 0 1 poisson 210 ------- 0 0.0 1.0 120 120
- 0.235069 0 1 poisson 210 ------- 0 0.0 1.0 129 129
+ 0.235431 0 1 poisson 210 ------- 0 0.0 1.0 232 232
+ 0.235431 0 1 poisson 210 ------- 0 0.0 1.0 233 233
d 0.235431 0 1 poisson 210 ------- 0 0.0 1.0 233 233
+ 0.235431 0 1 poisson 210 ------- 0 0.0 1.0 234 234
d 0.235431 0 1 poisson 210 ------- 0 0.0 1.0 234 234
+ 0.235431 0 1 poisson 210 ------- 0 0.0 1.0 235 235
d 0.235431 0 1 poisson 210 ------- 0 0.0 1.0 235 235
+ 0.235431 0 1 poisson 210 ------- 0 0.0 1.0 236 236
d 0.235431 0 1 poisson 210 ------- 0 0.0 1.0 236 236
+ 0.235431 0 1 poisson 210 ------- 0 0.0 1.0 237 237
d 0.235431 0 1 poisson 210 ------- 0 0.0 1.0 237 237
+ 0.235431 0 1 poisson 210 ------- 0 0.0 1.0 238 238
d 0.235431 0 1 poisson 210 ------- 0 0.0 1.0 238 238
+ 0.235431 0 1 poisson 30 ------- 0 0.0 1.0 239 239
d 0.235431 0 1 poisson 30 ------- 0 0.0 1.0 239 239
r 0.236669 0 1 poisson 210 ------- 0 0.0 1.0 121 121
- 0.236749 0 1 poisson 210 ------- 0 0.0 1.0 130 130
r 0.238349 0 1 poisson 210 ------- 0 0.0 1.0 122 122
- 0.238429 0 1 poisson 210 ------- 0 0.0 1.0 131 131
r 0.240029 0 1 poisson 210 ------- 0 0.0 1.0 123 123
- 0.240109 0 1 poisson 210 ------- 0 0.0 1.0 132 132
r 0.241709 0 1 poisson 210 ------- 0 0.0 1.0 124 124
- 0.241789 0 1 poisson 210 ------- 0 0.0 1.0 133 133
r 0.243389 0 1 poisson 210 ------- 0 0.0 1.0 125 125
- 0.243469 0 1 poisson 210 ------- 0 0.0 1.0 134 134
+ 0.244593 0 1 poisson 210 ------- 0 0.0 1.0 240 240
+ 0.244593 0 1 poisson 210 ------- 0 0.0 1.0 241 241
+ 0.244593 0 1 poisson 210 ------- 0 0.0 1.0 242 242
+ 0.244593 0 1 poisson 210 ------- 0 0.0 1.0 243 243
+ 0.244593 0 1 poisson 210 ------- 0 0.0 1.0 244 244
+ 0.244593 0 1 poisson 210 ------- 0 0.0 1.0 245 245
d 0.244593 0 1 poisson 210 ------- 0 0.0 1.0 245 245
+ 0.244593 0 1 poisson 210 ------- 0 0.0 1.0 246 246
d 0.244593 0 1 poisson 210 ------- 0 0.0 1.0 246 246
+ 0.244593 0 1 poisson 30 ------- 0 0.0 1.0 247 247
d 0.244593 0 1 poisson 30 ------- 0 0.0 1.0 247 247
r 0.245069 0 1 poisson 210 ------- 0 0.0 1.0 128 128
- 0.245149 0 1 poisson 30 ------- 0 0.0 1.0 135 135
- 0.245389 0 1 poisson 210 ------- 0 0.0 1.0 136 136
r 0.246749 0 1 poisson 210 ------- 0 0.0 1.0 129 129
- 0.247069 0 1 poisson 210 ------- 0 0.0 1.0 144 144
r 0.248429 0 1 poisson 210 ------- 0 0.0 1.0 130 130
- 0.248749 0 1 poisson 210 ------- 0 0.0 1.0 145 145
r 0.250109 0 1 poisson 210 ------- 0 0.0 1.0 131 131
- 0.250429 0 1 poisson 210 ------- 0 0.0 1.0 146 146