+ 0 0 1 poisson 210 ------- 0 0.0 1.0 0 0
- 0 0 1 poisson 210 ------- 0 0.0 1.0 0 0
+ 0 0 1 poisson 210 ------- 0 0.0 1.0 1 1
+ 0 0 1 poisson 210 ------- 0 0.0 1.0 2 2
+ 0 0 1 poisson 210 ------- 0 0.0 1.0 3 3
+ 0 0 1 poisson 210 ------- 0 0.0 1.0 4 4
+ 0 0 1 poisson 210 ------- 0 0.0 1.0 5 5
+ 0 0 1 poisson 210 ------- 0 0.0 1.0 6 6
+ 0 0 1 poisson 30 ------- 0 0.0 1.0 7 7
- 0.00168 0 1 poisson 210 ------- 0 0.0 1.0 1 1
- 0.00336 0 1 poisson 210 ------- 0 0.0 1.0 2 2
- 0.00504 0 1 poisson 210 ------- 0 0.0 1.0 3 3
- 0.00672 0 1 poisson 210 ------- 0 0.0 1.0 4 4
- 0.0084 0 1 poisson 210 ------- 0 0.0 1.0 5 5
- 0.01008 0 1 poisson 210 ------- 0 0.0 1.0 6 6
r 0.01168 0 1 poisson 210 ------- 0 0.0 1.0 0 0
- 0.01176 0 1 poisson 30 ------- 0 0.0 1.0 7 7
r 0.01336 0 1 poisson 210 ------- 0 0.0 1.0 1 1
r 0.01504 0 1 poisson 210 ------- 0 0.0 1.0 2 2
r 0.01672 0 1 poisson 210 ------- 0 0.0 1.0 3 3
r 0.0184 0 1 poisson 210 ------- 0 0.0 1.0 4 4
r 0.02008 0 1 poisson 210 ------- 0 0.0 1.0 5 5
r 0.02176 0 1 poisson 210 ------- 0 0.0 1.0 6 6
r 0.022 0 1 poisson 30 ------- 0 0.0 1.0 7 7
+ 0.191707 0 1 poisson 210 ------- 0 0.0 1.0 8 8
- 0.191707 0 1 poisson 210 ------- 0 0.0 1.0 8 8
+ 0.191707 0 1 poisson 210 ------- 0 0.0 1.0 9 9
+ 0.191707 0 1 poisson 210 ------- 0 0.0 1.0 10 10
+ 0.191707 0 1 poisson 210 ------- 0 0.0 1.0 11 11
+ 0.191707 0 1 poisson 210 ------- 0 0.0 1.0 12 12
+ 0.191707 0 1 poisson 210 ------- 0 0.0 1.0 13 13
+ 0.191707 0 1 poisson 210 ------- 0 0.0 1.0 14 14
+ 0.191707 0 1 poisson 30 ------- 0 0.0 1.0 15 15
- 0.193387 0 1 poisson 210 ------- 0 0.0 1.0 9 9
- 0.195067 0 1 poisson 210 ------- 0 0.0 1.0 10 10
- 0.196747 0 1 poisson 210 ------- 0 0.0 1.0 11 11
- 0.198427 0 1 poisson 210 ------- 0 0.0 1.0 12 12
- 0.200107 0 1 poisson 210 ------- 0 0.0 1.0 13 13
- 0.201787 0 1 poisson 210 ------- 0 0.0 1.0 14 14
r 0.203387 0 1 poisson 210 ------- 0 0.0 1.0 8 8
- 0.203467 0 1 poisson 30 ------- 0 0.0 1.0 15 15
r 0.205067 0 1 poisson 210 ------- 0 0.0 1.0 9 9
+ 0.2058 0 1 poisson 210 ------- 0 0.0 1.0 16 16
- 0.2058 0 1 poisson 210 ------- 0 0.0 1.0 16 16
+ 0.2058 0 1 poisson 210 ------- 0 0.0 1.0 17 17
+ 0.2058 0 1 poisson 210 ------- 0 0.0 1.0 18 18
+ 0.2058 0 1 poisson 210 ------- 0 0.0 1.0 19 19
+ 0.2058 0 1 poisson 210 ------- 0 0.0 1.0 20 20
+ 0.2058 0 1 poisson 210 ------- 0 0.0 1.0 21 21
+ 0.2058 0 1 poisson 210 ------- 0 0.0 1.0 22 22
+ 0.2058 0 1 poisson 30 ------- 0 0.0 1.0 23 23
r 0.206747 0 1 poisson 210 ------- 0 0.0 1.0 10 10
- 0.20748 0 1 poisson 210 ------- 0 0.0 1.0 17 17
r 0.208427 0 1 poisson 210 ------- 0 0.0 1.0 11 11
- 0.20916 0 1 poisson 210 ------- 0 0.0 1.0 18 18
r 0.210107 0 1 poisson 210 ------- 0 0.0 1.0 12 12
- 0.21084 0 1 poisson 210 ------- 0 0.0 1.0 19 19
r 0.211787 0 1 poisson 210 ------- 0 0.0 1.0 13 13
- 0.21252 0 1 poisson 210 ------- 0 0.0 1.0 20 20
r 0.213467 0 1 poisson 210 ------- 0 0.0 1.0 14 14
r 0.213707 0 1 poisson 30 ------- 0 0.0 1.0 15 15
- 0.2142 0 1 poisson 210 ------- 0 0.0 1.0 21 21
- 0.21588 0 1 poisson 210 ------- 0 0.0 1.0 22 22
r 0.21748 0 1 poisson 210 ------- 0 0.0 1.0 16 16
- 0.21756 0 1 poisson 30 ------- 0 0.0 1.0 23 23
r 0.21916 0 1 poisson 210 ------- 0 0.0 1.0 17 17
r 0.22084 0 1 poisson 210 ------- 0 0.0 1.0 18 18
r 0.22252 0 1 poisson 210 ------- 0 0.0 1.0 19 19
r 0.2242 0 1 poisson 210 ------- 0 0.0 1.0 20 20
r 0.22588 0 1 poisson 210 ------- 0 0.0 1.0 21 21
r 0.22756 0 1 poisson 210 ------- 0 0.0 1.0 22 22
r 0.2278 0 1 poisson 30 ------- 0 0.0 1.0 23 23
+ 0.307901 0 1 poisson 210 ------- 0 0.0 1.0 24 24
- 0.307901 0 1 poisson 210 ------- 0 0.0 1.0 24 24
+ 0.307901 0 1 poisson 210 ------- 0 0.0 1.0 25 25
+ 0.307901 0 1 poisson 210 ------- 0 0.0 1.0 26 26
+ 0.307901 0 1 poisson 210 ------- 0 0.0 1.0 27 27
+ 0.307901 0 1 poisson 210 ------- 0 0.0 1.0 28 28
+ 0.307901 0 1 poisson 210 ------- 0 0.0 1.0 29 29
+ 0.307901 0 1 poisson 210 ------- 0 0.0 1.0 30 30
+ 0.307901 0 1 poisson 30 ------- 0 0.0 1.0 31 31
- 0.309581 0 1 poisson 210 ------- 0 0.0 1.0 25 25
- 0.311261 0 1 poisson 210 ------- 0 0.0 1.0 26 26
- 0.312941 0 1 poisson 210 ------- 0 0.0 1.0 27 27
- 0.314621 0 1 poisson 210 ------- 0 0.0 1.0 28 28
- 0.316301 0 1 poisson 210 ------- 0 0.0 1.0 29 29
- 0.317981 0 1 poisson 210 ------- 0 0.0 1.0 30 30
r 0.319581 0 1 poisson 210 ------- 0 0.0 1.0 24 24
- 0.319661 0 1 poisson 30 ------- 0 0.0 1.0 31 31
r 0.321261 0 1 poisson 210 ------- 0 0.0 1.0 25 25
r 0.322941 0 1 poisson 210 ------- 0 0.0 1.0 26 26
r 0.324621 0 1 poisson 210 ------- 0 0.0 1.0 27 27
r 0.326301 0 1 poisson 210 ------- 0 0.0 1.0 28 28
r 0.327981 0 1 poisson 210 ------- 0 0.0 1.0 29 29
r 0.329661 0 1 poisson 210 ------- 0 0.0 1.0 30 30
r 0.329901 0 1 poisson 30 ------- 0 0.0 1.0 31 31
+ 0.366197 0 1 poisson 210 ------- 0 0.0 1.0 32 32
- 0.366197 0 1 poisson 210 ------- 0 0.0 1.0 32 32
+ 0.366197 0 1 poisson 210 ------- 0 0.0 1.0 33 33
+ 0.366197 0 1 poisson 210 ------- 0 0.0 1.0 34 34
+ 0.366197 0 1 poisson 210 ------- 0 0.0 1.0 35 35
+ 0.366197 0 1 poisson 210 ------- 0 0.0 1.0 36 36
+ 0.366197 0 1 poisson 210 ------- 0 0.0 1.0 37 37
+ 0.366197 0 1 poisson 210 ------- 0 0.0 1.0 38 38
+ 0.366197 0 1 poisson 30 ------- 0 0.0 1.0 39 39
- 0.367877 0 1 poisson 210 ------- 0 0.0 1.0 33 33
- 0.369557 0 1 poisson 210 ------- 0 0.0 1.0 34 34
- 0.371237 0 1 poisson 210 ------- 0 0.0 1.0 35 35
- 0.372917 0 1 poisson 210 ------- 0 0.0 1.0 36 36
- 0.374597 0 1 poisson 210 ------- 0 0.0 1.0 37 37
- 0.376277 0 1 poisson 210 ------- 0 0.0 1.0 38 38
r 0.377877 0 1 poisson 210 ------- 0 0.0 1.0 32 32
- 0.377957 0 1 poisson 30 ------- 0 0.0 1.0 39 39
r 0.379557 0 1 poisson 210 ------- 0 0.0 1.0 33 33
r 0.381237 0 1 poisson 210 ------- 0 0.0 1.0 34 34
r 0.382917 0 1 poisson 210 ------- 0 0.0 1.0 35 35
r 0.384597 0 1 poisson 210 ------- 0 0.0 1.0 36 36
+ 0.385837 0 1 poisson 210 ------- 0 0.0 1.0 40 40
- 0.385837 0 1 poisson 210 ------- 0 0.0 1.0 40 40
+ 0.385837 0 1 poisson 210 ------- 0 0.0 1.0 41 41
+ 0.385837 0 1 poisson 210 ------- 0 0.0 1.0 42 42
+ 0.385837 0 1 poisson 210 ------- 0 0.0 1.0 43 43
+ 0.385837 0 1 poisson 210 ------- 0 0.0 1.0 44 44
+ 0.385837 0 1 poisson 210 ------- 0 0.0 1.0 45 45
+ 0.385837 0 1 poisson 210 ------- 0 0.0 1.0 46 46
+ 0.385837 0 1 poisson 30 ------- 0 0.0 1.0 47 47
r 0.386277 0 1 poisson 210 ------- 0 0.0 1.0 37 37
- 0.387517 0 1 poisson 210 ------- 0 0.0 1.0 41 41
r 0.387957 0 1 poisson 210 ------- 0 0.0 1.0 38 38
r 0.388197 0 1 poisson 30 ------- 0 0.0 1.0 39 39
- 0.389197 0 1 poisson 210 ------- 0 0.0 1.0 42 42
- 0.390877 0 1 poisson 210 ------- 0 0.0 1.0 43 43
+ 0.391218 0 1 poisson 210 ------- 0 0.0 1.0 48 48
+ 0.391218 0 1 poisson 210 ------- 0 0.0 1.0 49 49
+ 0.391218 0 1 poisson 210 ------- 0 0.0 1.0 50 50
+ 0.391218 0 1 poisson 210 ------- 0 0.0 1.0 51 51
+ 0.391218 0 1 poisson 210 ------- 0 0.0 1.0 52 52
+ 0.391218 0 1 poisson 210 ------- 0 0.0 1.0 53 53
+ 0.391218 0 1 poisson 210 ------- 0 0.0 1.0 54 54
+ 0.391218 0 1 poisson 30 ------- 0 0.0 1.0 55 55
- 0.392557 0 1 poisson 210 ------- 0 0.0 1.0 44 44
- 0.394237 0 1 poisson 210 ------- 0 0.0 1.0 45 45
- 0.395917 0 1 poisson 210 ------- 0 0.0 1.0 46 46
r 0.397517 0 1 poisson 210 ------- 0 0.0 1.0 40 40
- 0.397597 0 1 poisson 30 ------- 0 0.0 1.0 47 47
- 0.397837 0 1 poisson 210 ------- 0 0.0 1.0 48 48
r 0.399197 0 1 poisson 210 ------- 0 0.0 1.0 41 41
- 0.399517 0 1 poisson 210 ------- 0 0.0 1.0 49 49
r 0.400877 0 1 poisson 210 ------- 0 0.0 1.0 42 42
- 0.401197 0 1 poisson 210 ------- 0 0.0 1.0 50 50
r 0.402557 0 1 poisson 210 ------- 0 0.0 1.0 43 43
- 0.402877 0 1 poisson 210 ------- 0 0.0 1.0 51 51
r 0.404237 0 1 poisson 210 ------- 0 0.0 1.0 44 44
- 0.404557 0 1 poisson 210 ------- 0 0.0 1.0 52 52
r 0.405917 0 1 poisson 210 ------- 0 0.0 1.0 45 45
- 0.406237 0 1 poisson 210 ------- 0 0.0 1.0 53 53
r 0.407597 0 1 poisson 210 ------- 0 0.0 1.0 46 46
r 0.407837 0 1 poisson 30 ------- 0 0.0 1.0 47 47
- 0.407917 0 1 poisson 210 ------- 0 0.0 1.0 54 54
r 0.409517 0 1 poisson 210 ------- 0 0.0 1.0 48 48
- 0.409597 0 1 poisson 30 ------- 0 0.0 1.0 55 55
r 0.411197 0 1 poisson 210 ------- 0 0.0 1.0 49 49
r 0.412877 0 1 poisson 210 ------- 0 0.0 1.0 50 50
r 0.414557 0 1 poisson 210 ------- 0 0.0 1.0 51 51
r 0.416237 0 1 poisson 210 ------- 0 0.0 1.0 52 52
r 0.417917 0 1 poisson 210 ------- 0 0.0 1.0 53 53
+ 0.419098 0 1 poisson 210 ------- 0 0.0 1.0 56 56
- 0.419098 0 1 poisson 210 ------- 0 0.0 1.0 56 56
+ 0.419098 0 1 poisson 210 ------- 0 0.0 1.0 57 57
+ 0.419098 0 1 poisson 210 ------- 0 0.0 1.0 58 58
+ 0.419098 0 1 poisson 210 ------- 0 0.0 1.0 59 59
+ 0.419098 0 1 poisson 210 ------- 0 0.0 1.0 60 60
+ 0.419098 0 1 poisson 210 ------- 0 0.0 1.0 61 61
+ 0.419098 0 1 poisson 210 ------- 0 0.0 1.0 62 62
+ 0.419098 0 1 poisson 30 ------- 0 0.0 1.0 63 63
r 0.419597 0 1 poisson 210 ------- 0 0.0 1.0 54 54
r 0.419837 0 1 poisson 30 ------- 0 0.0 1.0 55 55
- 0.420778 0 1 poisson 210 ------- 0 0.0 1.0 57 57
- 0.422458 0 1 poisson 210 ------- 0 0.0 1.0 58 58
+ 0.423964 0 1 poisson 210 ------- 0 0.0 1.0 64 64
+ 0.423964 0 1 poisson 210 ------- 0 0.0 1.0 65 65
+ 0.423964 0 1 poisson 210 ------- 0 0.0 1.0 66 66
+ 0.423964 0 1 poisson 210 ------- 0 0.0 1.0 67 67
+ 0.423964 0 1 poisson 210 ------- 0 0.0 1.0 68 68
+ 0.423964 0 1 poisson 210 ------- 0 0.0 1.0 69 69
+ 0.423964 0 1 poisson 210 ------- 0 0.0 1.0 70 70
+ 0.423964 0 1 poisson 30 ------- 0 0.0 1.0 71 71
- 0.424138 0 1 poisson 210 ------- 0 0.0 1.0 59 59
- 0.425818 0 1 poisson 210 ------- 0 0.0 1.0 60 60
- 0.427498 0 1 poisson 210 ------- 0 0.0 1.0 61 61
- 0.429178 0 1 poisson 210 ------- 0 0.0 1.0 62 62
r 0.430778 0 1 poisson 210 ------- 0 0.0 1.0 56 56
- 0.430858 0 1 poisson 30 ------- 0 0.0 1.0 63 63
- 0.431098 0 1 poisson 210 ------- 0 0.0 1.0 64 64
r 0.432458 0 1 poisson 210 ------- 0 0.0 1.0 57 57
- 0.432778 0 1 poisson 210 ------- 0 0.0 1.0 65 65
r 0.434138 0 1 poisson 210 ------- 0 0.0 1.0 58 58
- 0.434458 0 1 poisson 210 ------- 0 0.0 1.0 66 66
r 0.435818 0 1 poisson 210 ------- 0 0.0 1.0 59 59
- 0.436138 0 1 poisson 210 ------- 0 0.0 1.0 67 67
r 0.437498 0 1 poisson 210 ------- 0 0.0 1.0 60 60
- 0.437818 0 1 poisson 210 ------- 0 0.0 1.0 68 68
r 0.439178 0 1 poisson 210 ------- 0 0.0 1.0 61 61
- 0.439498 0 1 poisson 210 ------- 0 0.0 1.0 69 69
r 0.440858 0 1 poisson 210 ------- 0 0.0 1.0 62 62
r 0.441098 0 1 poisson 30 ------- 0 0.0 1.0 63 63
- 0.441178 0 1 poisson 210 ------- 0 0.0 1.0 70 70
r 0.442778 0 1 poisson 210 ------- 0 0.0 1.0 64 64
- 0.442858 0 1 poisson 30 ------- 0 0.0 1.0 71 71
r 0.444458 0 1 poisson 210 ------- 0 0.0 1.0 65 65
r 0.446138 0 1 poisson 210 ------- 0 0.0 1.0 66 66
r 0.447818 0 1 poisson 210 ------- 0 0.0 1.0 67 67
r 0.449498 0 1 poisson 210 ------- 0 0.0 1.0 68 68
r 0.451178 0 1 poisson 210 ------- 0 0.0 1.0 69 69
r 0.452858 0 1 poisson 210 ------- 0 0.0 1.0 70 70
r 0.453098 0 1 poisson 30 ------- 0 0.0 1.0 71 71
+ 0.458761 0 1 poisson 210 ------- 0 0.0 1.0 72 72
- 0.458761 0 1 poisson 210 ------- 0 0.0 1.0 72 72
+ 0.458761 0 1 poisson 210 ------- 0 0.0 1.0 73 73
+ 0.458761 0 1 poisson 210 ------- 0 0.0 1.0 74 74
+ 0.458761 0 1 poisson 210 ------- 0 0.0 1.0 75 75
+ 0.458761 0 1 poisson 210 ------- 0 0.0 1.0 76 76
+ 0.458761 0 1 poisson 210 ------- 0 0.0 1.0 77 77
+ 0.458761 0 1 poisson 210 ------- 0 0.0 1.0 78 78
+ 0.458761 0 1 poisson 30 ------- 0 0.0 1.0 79 79
- 0.460441 0 1 poisson 210 ------- 0 0.0 1.0 73 73
- 0.462121 0 1 poisson 210 ------- 0 0.0 1.0 74 74
- 0.463801 0 1 poisson 210 ------- 0 0.0 1.0 75 75
- 0.465481 0 1 poisson 210 ------- 0 0.0 1.0 76 76
- 0.467161 0 1 poisson 210 ------- 0 0.0 1.0 77 77
- 0.468841 0 1 poisson 210 ------- 0 0.0 1.0 78 78
+ 0.469514 0 1 poisson 210 ------- 0 0.0 1.0 80 80
+ 0.469514 0 1 poisson 210 ------- 0 0.0 1.0 81 81
+ 0.469514 0 1 poisson 210 ------- 0 0.0 1.0 82 82
+ 0.469514 0 1 poisson 210 ------- 0 0.0 1.0 83 83
+ 0.469514 0 1 poisson 210 ------- 0 0.0 1.0 84 84
+ 0.469514 0 1 poisson 210 ------- 0 0.0 1.0 85 85
+ 0.469514 0 1 poisson 210 ------- 0 0.0 1.0 86 86
+ 0.469514 0 1 poisson 30 ------- 0 0.0 1.0 87 87
r 0.470441 0 1 poisson 210 ------- 0 0.0 1.0 72 72
- 0.470521 0 1 poisson 30 ------- 0 0.0 1.0 79 79
- 0.470761 0 1 poisson 210 ------- 0 0.0 1.0 80 80
r 0.472121 0 1 poisson 210 ------- 0 0.0 1.0 73 73
- 0.472441 0 1 poisson 210 ------- 0 0.0 1.0 81 81
r 0.473801 0 1 poisson 210 ------- 0 0.0 1.0 74 74
- 0.474121 0 1 poisson 210 ------- 0 0.0 1.0 82 82
r 0.475481 0 1 poisson 210 ------- 0 0.0 1.0 75 75
- 0.475801 0 1 poisson 210 ------- 0 0.0 1.0 83 83
r 0.477161 0 1 poisson 210 ------- 0 0.0 1.0 76 76
- 0.477481 0 1 poisson 210 ------- 0 0.0 1.0 84 84
r 0.478841 0 1 poisson 210 ------- 0 0.0 1.0 77 77
- 0.479161 0 1 poisson 210 ------- 0 0.0 1.0 85 85
r 0.480521 0 1 poisson 210 ------- 0 0.0 1.0 78 78
r 0.480761 0 1 poisson 30 ------- 0 0.0 1.0 79 79
- 0.480841 0 1 poisson 210 ------- 0 0.0 1.0 86 86
r 0.482441 0 1 poisson 210 ------- 0 0.0 1.0 80 80
- 0.482521 0 1 poisson 30 ------- 0 0.0 1.0 87 87
r 0.484121 0 1 poisson 210 ------- 0 0.0 1.0 81 81
r 0.485801 0 1 poisson 210 ------- 0 0.0 1.0 82 82
r 0.487481 0 1 poisson 210 ------- 0 0.0 1.0 83 83
r 0.489161 0 1 poisson 210 ------- 0 0.0 1.0 84 84
r 0.490841 0 1 poisson 210 ------- 0 0.0 1.0 85 85
r 0.492521 0 1 poisson 210 ------- 0 0.0 1.0 86 86
r 0.492761 0 1 poisson 30 ------- 0 0.0 1.0 87 87
+ 0.497694 0 1 poisson 210 ------- 0 0.0 1.0 88 88
- 0.497694 0 1 poisson 210 ------- 0 0.0 1.0 88 88
+ 0.497694 0 1 poisson 210 ------- 0 0.0 1.0 89 89
+ 0.497694 0 1 poisson 210 ------- 0 0.0 1.0 90 90
+ 0.497694 0 1 poisson 210 ------- 0 0.0 1.0 91 91
+ 0.497694 0 1 poisson 210 ------- 0 0.0 1.0 92 92
+ 0.497694 0 1 poisson 210 ------- 0 0.0 1.0 93 93
+ 0.497694 0 1 poisson 210 ------- 0 0.0 1.0 94 94
+ 0.497694 0 1 poisson 30 ------- 0 0.0 1.0 95 95
- 0.499374 0 1 poisson 210 ------- 0 0.0 1.0 89 89
- 0.501054 0 1 poisson 210 ------- 0 0.0 1.0 90 90
+ 0.501984 0 1 poisson 210 ------- 0 0.0 1.0 96 96
+ 0.501984 0 1 poisson 210 ------- 0 0.0 1.0 97 97
+ 0.501984 0 1 poisson 210 ------- 0 0.0 1.0 98 98
+ 0.501984 0 1 poisson 210 ------- 0 0.0 1.0 99 99
+ 0.501984 0 1 poisson 210 ------- 0 0.0 1.0 100 100
+ 0.501984 0 1 poisson 210 ------- 0 0.0 1.0 101 101
+ 0.501984 0 1 poisson 210 ------- 0 0.0 1.0 102 102
+ 0.501984 0 1 poisson 30 ------- 0 0.0 1.0 103 103
- 0.502734 0 1 poisson 210 ------- 0 0.0 1.0 91 91
- 0.504414 0 1 poisson 210 ------- 0 0.0 1.0 92 92
- 0.506094 0 1 poisson 210 ------- 0 0.0 1.0 93 93
- 0.507774 0 1 poisson 210 ------- 0 0.0 1.0 94 94
r 0.509374 0 1 poisson 210 ------- 0 0.0 1.0 88 88
- 0.509454 0 1 poisson 30 ------- 0 0.0 1.0 95 95
- 0.509694 0 1 poisson 210 ------- 0 0.0 1.0 96 96
r 0.511054 0 1 poisson 210 ------- 0 0.0 1.0 89 89
- 0.511374 0 1 poisson 210 ------- 0 0.0 1.0 97 97
r 0.512734 0 1 poisson 210 ------- 0 0.0 1.0 90 90
- 0.513054 0 1 poisson 210 ------- 0 0.0 1.0 98 98
r 0.514414 0 1 poisson 210 ------- 0 0.0 1.0 91 91
- 0.514734 0 1 poisson 210 ------- 0 0.0 1.0 99 99
r 0.516094 0 1 poisson 210 ------- 0 0.0 1.0 92 92
- 0.516414 0 1 poisson 210 ------- 0 0.0 1.0 100 100
r 0.517774 0 1 poisson 210 ------- 0 0.0 1.0 93 93
- 0.518094 0 1 poisson 210 ------- 0 0.0 1.0 101 101
r 0.519454 0 1 poisson 210 ------- 0 0.0 1.0 94 94
r 0.519694 0 1 poisson 30 ------- 0 0.0 1.0 95 95
- 0.519774 0 1 poisson 210 ------- 0 0.0 1.0 102 102
r 0.521374 0 1 poisson 210 ------- 0 0.0 1.0 96 96
- 0.521454 0 1 poisson 30 ------- 0 0.0 1.0 103 103
r 0.523054 0 1 poisson 210 ------- 0 0.0 1.0 97 97
r 0.524734 0 1 poisson 210 ------- 0 0.0 1.0 98 98
r 0.526414 0 1 poisson 210 ------- 0 0.0 1.0 99 99
r 0.528094 0 1 poisson 210 ------- 0 0.0 1.0 100 100
r 0.529774 0 1 poisson 210 ------- 0 0.0 1.0 101 101
r 0.531454 0 1 poisson 210 ------- 0 0.0 1.0 102 102
r 0.531694 0 1 poisson 30 ------- 0 0.0 1.0 103 103
+ 0.545352 0 1 poisson 210 ------- 0 0.0 1.0 104 104
- 0.545352 0 1 poisson 210 ------- 0 0.0 1.0 104 104
+ 0.545352 0 1 poisson 210 ------- 0 0.0 1.0 105 105
+ 0.545352 0 1 poisson 210 ------- 0 0.0 1.0 106 106
+ 0.545352 0 1 poisson 210 ------- 0 0.0 1.0 107 107
+ 0.545352 0 1 poisson 210 ------- 0 0.0 1.0 108 108
+ 0.545352 0 1 poisson 210 ------- 0 0.0 1.0 109 109
+ 0.545352 0 1 poisson 210 ------- 0 0.0 1.0 110 110
+ 0.545352 0 1 poisson 30 ------- 0 0.0 1.0 111 111
- 0.547032 0 1 poisson 210 ------- 0 0.0 1.0 105 105
- 0.548712 0 1 poisson 210 ------- 0 0.0 1.0 106 106
- 0.550392 0 1 poisson 210 ------- 0 0.0 1.0 107 107
- 0.552072 0 1 poisson 210 ------- 0 0.0 1.0 108 108
- 0.553752 0 1 poisson 210 ------- 0 0.0 1.0 109 109
- 0.555432 0 1 poisson 210 ------- 0 0.0 1.0 110 110
r 0.557032 0 1 poisson 210 ------- 0 0.0 1.0 104 104
- 0.557112 0 1 poisson 30 ------- 0 0.0 1.0 111 111
r 0.558712 0 1 poisson 210 ------- 0 0.0 1.0 105 105
r 0.560392 0 1 poisson 210 ------- 0 0.0 1.0 106 106
r 0.562072 0 1 poisson 210 ------- 0 0.0 1.0 107 107
r 0.563752 0 1 poisson 210 ------- 0 0.0 1.0 108 108
r 0.565432 0 1 poisson 210 ------- 0 0.0 1.0 109 109
r 0.567112 0 1 poisson 210 ------- 0 0.0 1.0 110 110
r 0.567352 0 1 poisson 30 ------- 0 0.0 1.0 111 111
+ 0.620984 0 1 poisson 210 ------- 0 0.0 1.0 112 112
- 0.620984 0 1 poisson 210 ------- 0 0.0 1.0 112 112
+ 0.620984 0 1 poisson 210 ------- 0 0.0 1.0 113 113
+ 0.620984 0 1 poisson 210 ------- 0 0.0 1.0 114 114
+ 0.620984 0 1 poisson 210 ------- 0 0.0 1.0 115 115
+ 0.620984 0 1 poisson 210 ------- 0 0.0 1.0 116 116
+ 0.620984 0 1 poisson 210 ------- 0 0.0 1.0 117 117
+ 0.620984 0 1 poisson 210 ------- 0 0.0 1.0 118 118
+ 0.620984 0 1 poisson 30 ------- 0 0.0 1.0 119 119
- 0.622664 0 1 poisson 210 ------- 0 0.0 1.0 113 113
- 0.624344 0 1 poisson 210 ------- 0 0.0 1.0 114 114
- 0.626024 0 1 poisson 210 ------- 0 0.0 1.0 115 115
- 0.627704 0 1 poisson 210 ------- 0 0.0 1.0 116 116
- 0.629384 0 1 poisson 210 ------- 0 0.0 1.0 117 117
- 0.631064 0 1 poisson 210 ------- 0 0.0 1.0 118 118
+ 0.631693 0 1 poisson 210 ------- 0 0.0 1.0 120 120
+ 0.631693 0 1 poisson 210 ------- 0 0.0 1.0 121 121
+ 0.631693 0 1 poisson 210 ------- 0 0.0 1.0 122 122
+ 0.631693 0 1 poisson 210 ------- 0 0.0 1.0 123 123
+ 0.631693 0 1 poisson 210 ------- 0 0.0 1.0 124 124
+ 0.631693 0 1 poisson 210 ------- 0 0.0 1.0 125 125
+ 0.631693 0 1 poisson 210 ------- 0 0.0 1.0 126 126
+ 0.631693 0 1 poisson 30 ------- 0 0.0 1.0 127 127
r 0.632664 0 1 poisson 210 ------- 0 0.0 1.0 112 112
- 0.632744 0 1 poisson 30 ------- 0 0.0 1.0 119 119
- 0.632984 0 1 poisson 210 ------- 0 0.0 1.0 120 120
r 0.634344 0 1 poisson 210 ------- 0 0.0 1.0 113 113
- 0.634664 0 1 poisson 210 ------- 0 0.0 1.0 121 121
r 0.636024 0 1 poisson 210 ------- 0 0.0 1.0 114 114
- 0.636344 0 1 poisson 210 ------- 0 0.0 1.0 122 122
r 0.637704 0 1 poisson 210 ------- 0 0.0 1.0 115 115
- 0.638024 0 1 poisson 210 ------- 0 0.0 1.0 123 123
r 0.639384 0 1 poisson 210 ------- 0 0.0 1.0 116 116
- 0.639704 0 1 poisson 210 ------- 0 0.0 1.0 124 124
r 0.641064 0 1 poisson 210 ------- 0 0.0 1.0 117 117
- 0.641384 0 1 poisson 210 ------- 0 0.0 1.0 125 125
r 0.642744 0 1 poisson 210 ------- 0 0.0 1.0 118 118
r 0.642984 0 1 poisson 30 ------- 0 0.0 1.0 119 119
- 0.643064 0 1 poisson 210 ------- 0 0.0 1.0 126 126
r 0.644664 0 1 poisson 210 ------- 0 0.0 1.0 120 120
- 0.644744 0 1 poisson 30 ------- 0 0.0 1.0 127 127
r 0.646344 0 1 poisson 210 ------- 0 0.0 1.0 121 121
r 0.648024 0 1 poisson 210 ------- 0 0.0 1.0 122 122
r 0.649704 0 1 poisson 210 ------- 0 0.0 1.0 123 123
r 0.651384 0 1 poisson 210 ------- 0 0.0 1.0 124 124
r 0.653064 0 1 poisson 210 ------- 0 0.0 1.0 125 125
r 0.654744 0 1 poisson 210 ------- 0 0.0 1.0 126 126
r 0.654984 0 1 poisson 30 ------- 0 0.0 1.0 127 127
+ 0.68385 0 1 poisson 210 ------- 0 0.0 1.0 128 128
- 0.68385 0 1 poisson 210 ------- 0 0.0 1.0 128 128
+ 0.68385 0 1 poisson 210 ------- 0 0.0 1.0 129 129
+ 0.68385 0 1 poisson 210 ------- 0 0.0 1.0 130 130
+ 0.68385 0 1 poisson 210 ------- 0 0.0 1.0 131 131
+ 0.68385 0 1 poisson 210 ------- 0 0.0 1.0 132 132
+ 0.68385 0 1 poisson 210 ------- 0 0.0 1.0 133 133
+ 0.68385 0 1 poisson 210 ------- 0 0.0 1.0 134 134
+ 0.68385 0 1 poisson 30 ------- 0 0.0 1.0 135 135
- 0.68553 0 1 poisson 210 ------- 0 0.0 1.0 129 129
- 0.68721 0 1 poisson 210 ------- 0 0.0 1.0 130 130
+ 0.687478 0 1 poisson 210 ------- 0 0.0 1.0 136 136
+ 0.687478 0 1 poisson 210 ------- 0 0.0 1.0 137 137
+ 0.687478 0 1 poisson 210 ------- 0 0.0 1.0 138 138
+ 0.687478 0 1 poisson 210 ------- 0 0.0 1.0 139 139
+ 0.687478 0 1 poisson 210 ------- 0 0.0 1.0 140 140
+ 0.687478 0 1 poisson 210 ------- 0 0.0 1.0 141 141
+ 0.687478 0 1 poisson 210 ------- 0 0.0 1.0 142 142
+ 0.687478 0 1 poisson 30 ------- 0 0.0 1.0 143 143
- 0.68889 0 1 poisson 210 ------- 0 0.0 1.0 131 131
- 0.69057 0 1 poisson 210 ------- 0 0.0 1.0 132 132
- 0.69225 0 1 poisson 210 ------- 0 0.0 1.0 133 133
- 0.69393 0 1 poisson 210 ------- 0 0.0 1.0 134 134
r 0.69553 0 1 poisson 210 ------- 0 0.0 1.0 128 128
- 0.69561 0 1 poisson 30 ------- 0 0.0 1.0 135 135
- 0.69585 0 1 poisson 210 ------- 0 0.0 1.0 136 136
r 0.69721 0 1 poisson 210 ------- 0 0.0 1.0 129 129
- 0.69753 0 1 poisson 210 ------- 0 0.0 1.0 137 137
r 0.69889 0 1 poisson 210 ------- 0 0.0 1.0 130 130
- 0.69921 0 1 poisson 210 ------- 0 0.0 1.0 138 138
r 0.70057 0 1 poisson 210 ------- 0 0.0 1.0 131 131
- 0.70089 0 1 poisson 210 ------- 0 0.0 1.0 139 139
r 0.70225 0 1 poisson 210 ------- 0 0.0 1.0 132 132
- 0.70257 0 1 poisson 210 ------- 0 0.0 1.0 140 140
r 0.70393 0 1 poisson 210 ------- 0 0.0 1.0 133 133
- 0.70425 0 1 poisson 210 ------- 0 0.0 1.0 141 141
r 0.70561 0 1 poisson 210 ------- 0 0.0 1.0 134 134
r 0.70585 0 1 poisson 30 ------- 0 0.0 1.0 135 135
- 0.70593 0 1 poisson 210 ------- 0 0.0 1.0 142 142
r 0.70753 0 1 poisson 210 ------- 0 0.0 1.0 136 136
- 0.70761 0 1 poisson 30 ------- 0 0.0 1.0 143 143
+ 0.70809 0 1 poisson 210 ------- 0 0.0 1.0 144 144
- 0.70809 0 1 poisson 210 ------- 0 0.0 1.0 144 144
+ 0.70809 0 1 poisson 210 ------- 0 0.0 1.0 145 145
+ 0.70809 0 1 poisson 210 ------- 0 0.0 1.0 146 146
+ 0.70809 0 1 poisson 210 ------- 0 0.0 1.0 147 147
+ 0.70809 0 1 poisson 210 ------- 0 0.0 1.0 148 148
+ 0.70809 0 1 poisson 210 ------- 0 0.0 1.0 149 149
+ 0.70809 0 1 poisson 210 ------- 0 0.0 1.0 150 150
+ 0.70809 0 1 poisson 30 ------- 0 0.0 1.0 151 151
r 0.70921 0 1 poisson 210 ------- 0 0.0 1.0 137 137
- 0.70977 0 1 poisson 210 ------- 0 0.0 1.0 145 145
r 0.71089 0 1 poisson 210 ------- 0 0.0 1.0 138 138
- 0.71145 0 1 poisson 210 ------- 0 0.0 1.0 146 146
r 0.71257 0 1 poisson 210 ------- 0 0.0 1.0 139 139
- 0.71313 0 1 poisson 210 ------- 0 0.0 1.0 147 147
r 0.71425 0 1 poisson 210 ------- 0 0.0 1.0 140 140
- 0.71481 0 1 poisson 210 ------- 0 0.0 1.0 148 148
r 0.71593 0 1 poisson 210 ------- 0 0.0 1.0 141 141
- 0.71649 0 1 poisson 210 ------- 0 0.0 1.0 149 149
r 0.71761 0 1 poisson 210 ------- 0 0.0 1.0 142 142
r 0.71785 0 1 poisson 30 ------- 0 0.0 1.0 143 143
- 0.71817 0 1 poisson 210 ------- 0 0.0 1.0 150 150
r 0.71977 0 1 poisson 210 ------- 0 0.0 1.0 144 144
- 0.71985 0 1 poisson 30 ------- 0 0.0 1.0 151 151
r 0.72145 0 1 poisson 210 ------- 0 0.0 1.0 145 145
r 0.72313 0 1 poisson 210 ------- 0 0.0 1.0 146 146
r 0.72481 0 1 poisson 210 ------- 0 0.0 1.0 147 147
r 0.72649 0 1 poisson 210 ------- 0 0.0 1.0 148 148
r 0.72817 0 1 poisson 210 ------- 0 0.0 1.0 149 149
r 0.72985 0 1 poisson 210 ------- 0 0.0 1.0 150 150
r 0.73009 0 1 poisson 30 ------- 0 0.0 1.0 151 151
+ 0.749948 0 1 poisson 210 ------- 0 0.0 1.0 152 152
- 0.749948 0 1 poisson 210 ------- 0 0.0 1.0 152 152
+ 0.749948 0 1 poisson 210 ------- 0 0.0 1.0 153 153
+ 0.749948 0 1 poisson 210 ------- 0 0.0 1.0 154 154
+ 0.749948 0 1 poisson 210 ------- 0 0.0 1.0 155 155
+ 0.749948 0 1 poisson 210 ------- 0 0.0 1.0 156 156
+ 0.749948 0 1 poisson 210 ------- 0 0.0 1.0 157 157
+ 0.749948 0 1 poisson 210 ------- 0 0.0 1.0 158 158
+ 0.749948 0 1 poisson 30 ------- 0 0.0 1.0 159 159
- 0.751628 0 1 poisson 210 ------- 0 0.0 1.0 153 153
- 0.753308 0 1 poisson 210 ------- 0 0.0 1.0 154 154
- 0.754988 0 1 poisson 210 ------- 0 0.0 1.0 155 155
- 0.756668 0 1 poisson 210 ------- 0 0.0 1.0 156 156
- 0.758348 0 1 poisson 210 ------- 0 0.0 1.0 157 157
- 0.760028 0 1 poisson 210 ------- 0 0.0 1.0 158 158
r 0.761628 0 1 poisson 210 ------- 0 0.0 1.0 152 152
- 0.761708 0 1 poisson 30 ------- 0 0.0 1.0 159 159
r 0.763308 0 1 poisson 210 ------- 0 0.0 1.0 153 153
r 0.764988 0 1 poisson 210 ------- 0 0.0 1.0 154 154
r 0.766668 0 1 poisson 210 ------- 0 0.0 1.0 155 155
r 0.768348 0 1 poisson 210 ------- 0 0.0 1.0 156 156
r 0.770028 0 1 poisson 210 ------- 0 0.0 1.0 157 157
r 0.771708 0 1 poisson 210 ------- 0 0.0 1.0 158 158
r 0.771948 0 1 poisson 30 ------- 0 0.0 1.0 159 159
+ 0.806659 0 1 poisson 210 ------- 0 0.0 1.0 160 160
- 0.806659 0 1 poisson 210 ------- 0 0.0 1.0 160 160
+ 0.806659 0 1 poisson 210 ------- 0 0.0 1.0 161 161
+ 0.806659 0 1 poisson 210 ------- 0 0.0 1.0 162 162
+ 0.806659 0 1 poisson 210 ------- 0 0.0 1.0 163 163
+ 0.806659 0 1 poisson 210 ------- 0 0.0 1.0 164 164
+ 0.806659 0 1 poisson 210 ------- 0 0.0 1.0 165 165
+ 0.806659 0 1 poisson 210 ------- 0 0.0 1.0 166 166
+ 0.806659 0 1 poisson 30 ------- 0 0.0 1.0 167 167
- 0.808339 0 1 poisson 210 ------- 0 0.0 1.0 161 161
- 0.810019 0 1 poisson 210 ------- 0 0.0 1.0 162 162
- 0.811699 0 1 poisson 210 ------- 0 0.0 1.0 163 163
+ 0.811805 0 1 poisson 210 ------- 0 0.0 1.0 168 168
+ 0.811805 0 1 poisson 210 ------- 0 0.0 1.0 169 169
+ 0.811805 0 1 poisson 210 ------- 0 0.0 1.0 170 170
+ 0.811805 0 1 poisson 210 ------- 0 0.0 1.0 171 171
+ 0.811805 0 1 poisson 210 ------- 0 0.0 1.0 172 172
+ 0.811805 0 1 poisson 210 ------- 0 0.0 1.0 173 173
+ 0.811805 0 1 poisson 210 ------- 0 0.0 1.0 174 174
+ 0.811805 0 1 poisson 30 ------- 0 0.0 1.0 175 175
- 0.813379 0 1 poisson 210 ------- 0 0.0 1.0 164 164
- 0.815059 0 1 poisson 210 ------- 0 0.0 1.0 165 165
- 0.816739 0 1 poisson 210 ------- 0 0.0 1.0 166 166
r 0.818339 0 1 poisson 210 ------- 0 0.0 1.0 160 160
- 0.818419 0 1 poisson 30 ------- 0 0.0 1.0 167 167
- 0.818659 0 1 poisson 210 ------- 0 0.0 1.0 168 168
r 0.820019 0 1 poisson 210 ------- 0 0.0 1.0 161 161
- 0.820339 0 1 poisson 210 ------- 0 0.0 1.0 169 169
r 0.821699 0 1 poisson 210 ------- 0 0.0 1.0 162 162
- 0.822019 0 1 poisson 210 ------- 0 0.0 1.0 170 170
r 0.823379 0 1 poisson 210 ------- 0 0.0 1.0 163 163
- 0.823699 0 1 poisson 210 ------- 0 0.0 1.0 171 171
r 0.825059 0 1 poisson 210 ------- 0 0.0 1.0 164 164
- 0.825379 0 1 poisson 210 ------- 0 0.0 1.0 172 172
r 0.826739 0 1 poisson 210 ------- 0 0.0 1.0 165 165
- 0.827059 0 1 poisson 210 ------- 0 0.0 1.0 173 173
r 0.828419 0 1 poisson 210 ------- 0 0.0 1.0 166 166
r 0.828659 0 1 poisson 30 ------- 0 0.0 1.0 167 167
- 0.828739 0 1 poisson 210 ------- 0 0.0 1.0 174 174
r 0.830339 0 1 poisson 210 ------- 0 0.0 1.0 168 168
- 0.830419 0 1 poisson 30 ------- 0 0.0 1.0 175 175
r 0.832019 0 1 poisson 210 ------- 0 0.0 1.0 169 169
r 0.833699 0 1 poisson 210 ------- 0 0.0 1.0 170 170
r 0.835379 0 1 poisson 210 ------- 0 0.0 1.0 171 171
r 0.837059 0 1 poisson 210 ------- 0 0.0 1.0 172 172
+ 0.837087 0 1 poisson 210 ------- 0 0.0 1.0 176 176
- 0.837087 0 1 poisson 210 ------- 0 0.0 1.0 176 176
+ 0.837087 0 1 poisson 210 ------- 0 0.0 1.0 177 177
+ 0.837087 0 1 poisson 210 ------- 0 0.0 1.0 178 178
+ 0.837087 0 1 poisson 210 ------- 0 0.0 1.0 179 179
+ 0.837087 0 1 poisson 210 ------- 0 0.0 1.0 180 180
+ 0.837087 0 1 poisson 210 ------- 0 0.0 1.0 181 181
+ 0.837087 0 1 poisson 210 ------- 0 0.0 1.0 182 182
+ 0.837087 0 1 poisson 30 ------- 0 0.0 1.0 183 183
r 0.838739 0 1 poisson 210 ------- 0 0.0 1.0 173 173
- 0.838767 0 1 poisson 210 ------- 0 0.0 1.0 177 177
r 0.840419 0 1 poisson 210 ------- 0 0.0 1.0 174 174
- 0.840447 0 1 poisson 210 ------- 0 0.0 1.0 178 178
r 0.840659 0 1 poisson 30 ------- 0 0.0 1.0 175 175
- 0.842127 0 1 poisson 210 ------- 0 0.0 1.0 179 179
- 0.843807 0 1 poisson 210 ------- 0 0.0 1.0 180 180
- 0.845487 0 1 poisson 210 ------- 0 0.0 1.0 181 181
- 0.847167 0 1 poisson 210 ------- 0 0.0 1.0 182 182
r 0.848767 0 1 poisson 210 ------- 0 0.0 1.0 176 176
- 0.848847 0 1 poisson 30 ------- 0 0.0 1.0 183 183
r 0.850447 0 1 poisson 210 ------- 0 0.0 1.0 177 177
r 0.852127 0 1 poisson 210 ------- 0 0.0 1.0 178 178
r 0.853807 0 1 poisson 210 ------- 0 0.0 1.0 179 179
r 0.855487 0 1 poisson 210 ------- 0 0.0 1.0 180 180
r 0.857167 0 1 poisson 210 ------- 0 0.0 1.0 181 181
r 0.858847 0 1 poisson 210 ------- 0 0.0 1.0 182 182
r 0.859087 0 1 poisson 30 ------- 0 0.0 1.0 183 183
+ 0.869594 0 1 poisson 210 ------- 0 0.0 1.0 184 184
- 0.869594 0 1 poisson 210 ------- 0 0.0 1.0 184 184
+ 0.869594 0 1 poisson 210 ------- 0 0.0 1.0 185 185
+ 0.869594 0 1 poisson 210 ------- 0 0.0 1.0 186 186
+ 0.869594 0 1 poisson 210 ------- 0 0.0 1.0 187 187
+ 0.869594 0 1 poisson 210 ------- 0 0.0 1.0 188 188
+ 0.869594 0 1 poisson 210 ------- 0 0.0 1.0 189 189
+ 0.869594 0 1 poisson 210 ------- 0 0.0 1.0 190 190
+ 0.869594 0 1 poisson 30 ------- 0 0.0 1.0 191 191
- 0.871274 0 1 poisson 210 ------- 0 0.0 1.0 185 185
- 0.872954 0 1 poisson 210 ------- 0 0.0 1.0 186 186
- 0.874634 0 1 poisson 210 ------- 0 0.0 1.0 187 187
- 0.876314 0 1 poisson 210 ------- 0 0.0 1.0 188 188
- 0.877994 0 1 poisson 210 ------- 0 0.0 1.0 189 189
- 0.879674 0 1 poisson 210 ------- 0 0.0 1.0 190 190
r 0.881274 0 1 poisson 210 ------- 0 0.0 1.0 184 184
- 0.881354 0 1 poisson 30 ------- 0 0.0 1.0 191 191
r 0.882954 0 1 poisson 210 ------- 0 0.0 1.0 185 185
r 0.884634 0 1 poisson 210 ------- 0 0.0 1.0 186 186
r 0.886314 0 1 poisson 210 ------- 0 0.0 1.0 187 187
r 0.887994 0 1 poisson 210 ------- 0 0.0 1.0 188 188
r 0.889674 0 1 poisson 210 ------- 0 0.0 1.0 189 189
+ 0.891069 0 1 poisson 210 ------- 0 0.0 1.0 192 192
- 0.891069 0 1 poisson 210 ------- 0 0.0 1.0 192 192
+ 0.891069 0 1 poisson 210 ------- 0 0.0 1.0 193 193
+ 0.891069 0 1 poisson 210 ------- 0 0.0 1.0 194 194
+ 0.891069 0 1 poisson 210 ------- 0 0.0 1.0 195 195
+ 0.891069 0 1 poisson 210 ------- 0 0.0 1.0 196 196
+ 0.891069 0 1 poisson 210 ------- 0 0.0 1.0 197 197
+ 0.891069 0 1 poisson 210 ------- 0 0.0 1.0 198 198
+ 0.891069 0 1 poisson 30 ------- 0 0.0 1.0 199 199