V -t * -v 1.0a5 -a 0
A -t * -n 1 -p 0 -o 0xffffffff -c 31 -a 1
A -t * -h 1 -m 2147483647 -s 0
n -t * -a 0 -s 0 -S UP -v circle -c black -i black
n -t * -a 1 -s 1 -S UP -v circle -c black -i black
l -t * -s 0 -d 1 -S UP -r 1000000 -D 0.01 -c black
+ -t 0 -s 0 -d 1 -p poisson -e 210 -c 0 -i 0 -a 0 -x {0.0 1.0 0 ------- null}
- -t 0 -s 0 -d 1 -p poisson -e 210 -c 0 -i 0 -a 0 -x {0.0 1.0 0 ------- null}
h -t 0 -s 0 -d 1 -p poisson -e 210 -c 0 -i 0 -a 0 -x {0.0 1.0 -1 ------- null}
+ -t 0 -s 0 -d 1 -p poisson -e 210 -c 0 -i 1 -a 0 -x {0.0 1.0 1 ------- null}
+ -t 0 -s 0 -d 1 -p poisson -e 210 -c 0 -i 2 -a 0 -x {0.0 1.0 2 ------- null}
+ -t 0 -s 0 -d 1 -p poisson -e 210 -c 0 -i 3 -a 0 -x {0.0 1.0 3 ------- null}
+ -t 0 -s 0 -d 1 -p poisson -e 210 -c 0 -i 4 -a 0 -x {0.0 1.0 4 ------- null}
+ -t 0 -s 0 -d 1 -p poisson -e 210 -c 0 -i 5 -a 0 -x {0.0 1.0 5 ------- null}
+ -t 0 -s 0 -d 1 -p poisson -e 210 -c 0 -i 6 -a 0 -x {0.0 1.0 6 ------- null}
+ -t 0 -s 0 -d 1 -p poisson -e 30 -c 0 -i 7 -a 0 -x {0.0 1.0 7 ------- null}
- -t 0.00168 -s 0 -d 1 -p poisson -e 210 -c 0 -i 1 -a 0 -x {0.0 1.0 1 ------- null}
h -t 0.00168 -s 0 -d 1 -p poisson -e 210 -c 0 -i 1 -a 0 -x {0.0 1.0 -1 ------- null}
- -t 0.00336 -s 0 -d 1 -p poisson -e 210 -c 0 -i 2 -a 0 -x {0.0 1.0 2 ------- null}
h -t 0.00336 -s 0 -d 1 -p poisson -e 210 -c 0 -i 2 -a 0 -x {0.0 1.0 -1 ------- null}
- -t 0.00504 -s 0 -d 1 -p poisson -e 210 -c 0 -i 3 -a 0 -x {0.0 1.0 3 ------- null}
h -t 0.00504 -s 0 -d 1 -p poisson -e 210 -c 0 -i 3 -a 0 -x {0.0 1.0 -1 ------- null}
- -t 0.00672 -s 0 -d 1 -p poisson -e 210 -c 0 -i 4 -a 0 -x {0.0 1.0 4 ------- null}
h -t 0.00672 -s 0 -d 1 -p poisson -e 210 -c 0 -i 4 -a 0 -x {0.0 1.0 -1 ------- null}
- -t 0.0084 -s 0 -d 1 -p poisson -e 210 -c 0 -i 5 -a 0 -x {0.0 1.0 5 ------- null}
h -t 0.0084 -s 0 -d 1 -p poisson -e 210 -c 0 -i 5 -a 0 -x {0.0 1.0 -1 ------- null}
- -t 0.01008 -s 0 -d 1 -p poisson -e 210 -c 0 -i 6 -a 0 -x {0.0 1.0 6 ------- null}
h -t 0.01008 -s 0 -d 1 -p poisson -e 210 -c 0 -i 6 -a 0 -x {0.0 1.0 -1 ------- null}
r -t 0.01168 -s 0 -d 1 -p poisson -e 210 -c 0 -i 0 -a 0 -x {0.0 1.0 0 ------- null}
- -t 0.01176 -s 0 -d 1 -p poisson -e 30 -c 0 -i 7 -a 0 -x {0.0 1.0 7 ------- null}
h -t 0.01176 -s 0 -d 1 -p poisson -e 30 -c 0 -i 7 -a 0 -x {0.0 1.0 -1 ------- null}
r -t 0.01336 -s 0 -d 1 -p poisson -e 210 -c 0 -i 1 -a 0 -x {0.0 1.0 1 ------- null}
r -t 0.01504 -s 0 -d 1 -p poisson -e 210 -c 0 -i 2 -a 0 -x {0.0 1.0 2 ------- null}
r -t 0.01672 -s 0 -d 1 -p poisson -e 210 -c 0 -i 3 -a 0 -x {0.0 1.0 3 ------- null}
r -t 0.0184 -s 0 -d 1 -p poisson -e 210 -c 0 -i 4 -a 0 -x {0.0 1.0 4 ------- null}
r -t 0.02008 -s 0 -d 1 -p poisson -e 210 -c 0 -i 5 -a 0 -x {0.0 1.0 5 ------- null}
r -t 0.02176 -s 0 -d 1 -p poisson -e 210 -c 0 -i 6 -a 0 -x {0.0 1.0 6 ------- null}
r -t 0.022 -s 0 -d 1 -p poisson -e 30 -c 0 -i 7 -a 0 -x {0.0 1.0 7 ------- null}
+ -t 0.0958537100824914 -s 0 -d 1 -p poisson -e 210 -c 0 -i 8 -a 0 -x {0.0 1.0 8 ------- null}
- -t 0.0958537100824914 -s 0 -d 1 -p poisson -e 210 -c 0 -i 8 -a 0 -x {0.0 1.0 8 ------- null}
h -t 0.0958537100824914 -s 0 -d 1 -p poisson -e 210 -c 0 -i 8 -a 0 -x {0.0 1.0 -1 ------- null}
+ -t 0.0958537100824914 -s 0 -d 1 -p poisson -e 210 -c 0 -i 9 -a 0 -x {0.0 1.0 9 ------- null}
+ -t 0.0958537100824914 -s 0 -d 1 -p poisson -e 210 -c 0 -i 10 -a 0 -x {0.0 1.0 10 ------- null}
+ -t 0.0958537100824914 -s 0 -d 1 -p poisson -e 210 -c 0 -i 11 -a 0 -x {0.0 1.0 11 ------- null}
+ -t 0.0958537100824914 -s 0 -d 1 -p poisson -e 210 -c 0 -i 12 -a 0 -x {0.0 1.0 12 ------- null}
+ -t 0.0958537100824914 -s 0 -d 1 -p poisson -e 210 -c 0 -i 13 -a 0 -x {0.0 1.0 13 ------- null}
+ -t 0.0958537100824914 -s 0 -d 1 -p poisson -e 210 -c 0 -i 14 -a 0 -x {0.0 1.0 14 ------- null}
+ -t 0.0958537100824914 -s 0 -d 1 -p poisson -e 30 -c 0 -i 15 -a 0 -x {0.0 1.0 15 ------- null}
- -t 0.0975337100824914 -s 0 -d 1 -p poisson -e 210 -c 0 -i 9 -a 0 -x {0.0 1.0 9 ------- null}
h -t 0.0975337100824914 -s 0 -d 1 -p poisson -e 210 -c 0 -i 9 -a 0 -x {0.0 1.0 -1 ------- null}
- -t 0.0992137100824914 -s 0 -d 1 -p poisson -e 210 -c 0 -i 10 -a 0 -x {0.0 1.0 10 ------- null}
h -t 0.0992137100824914 -s 0 -d 1 -p poisson -e 210 -c 0 -i 10 -a 0 -x {0.0 1.0 -1 ------- null}
- -t 0.100893710082491 -s 0 -d 1 -p poisson -e 210 -c 0 -i 11 -a 0 -x {0.0 1.0 11 ------- null}
h -t 0.100893710082491 -s 0 -d 1 -p poisson -e 210 -c 0 -i 11 -a 0 -x {0.0 1.0 -1 ------- null}
- -t 0.102573710082491 -s 0 -d 1 -p poisson -e 210 -c 0 -i 12 -a 0 -x {0.0 1.0 12 ------- null}
h -t 0.102573710082491 -s 0 -d 1 -p poisson -e 210 -c 0 -i 12 -a 0 -x {0.0 1.0 -1 ------- null}
+ -t 0.102900128650664 -s 0 -d 1 -p poisson -e 210 -c 0 -i 16 -a 0 -x {0.0 1.0 16 ------- null}
+ -t 0.102900128650664 -s 0 -d 1 -p poisson -e 210 -c 0 -i 17 -a 0 -x {0.0 1.0 17 ------- null}
+ -t 0.102900128650664 -s 0 -d 1 -p poisson -e 210 -c 0 -i 18 -a 0 -x {0.0 1.0 18 ------- null}
+ -t 0.102900128650664 -s 0 -d 1 -p poisson -e 210 -c 0 -i 19 -a 0 -x {0.0 1.0 19 ------- null}
+ -t 0.102900128650664 -s 0 -d 1 -p poisson -e 210 -c 0 -i 20 -a 0 -x {0.0 1.0 20 ------- null}
+ -t 0.102900128650664 -s 0 -d 1 -p poisson -e 210 -c 0 -i 21 -a 0 -x {0.0 1.0 21 ------- null}
+ -t 0.102900128650664 -s 0 -d 1 -p poisson -e 210 -c 0 -i 22 -a 0 -x {0.0 1.0 22 ------- null}
+ -t 0.102900128650664 -s 0 -d 1 -p poisson -e 30 -c 0 -i 23 -a 0 -x {0.0 1.0 23 ------- null}
- -t 0.104253710082491 -s 0 -d 1 -p poisson -e 210 -c 0 -i 13 -a 0 -x {0.0 1.0 13 ------- null}
h -t 0.104253710082491 -s 0 -d 1 -p poisson -e 210 -c 0 -i 13 -a 0 -x {0.0 1.0 -1 ------- null}
- -t 0.105933710082491 -s 0 -d 1 -p poisson -e 210 -c 0 -i 14 -a 0 -x {0.0 1.0 14 ------- null}
h -t 0.105933710082491 -s 0 -d 1 -p poisson -e 210 -c 0 -i 14 -a 0 -x {0.0 1.0 -1 ------- null}
r -t 0.107533710082491 -s 0 -d 1 -p poisson -e 210 -c 0 -i 8 -a 0 -x {0.0 1.0 8 ------- null}
- -t 0.107613710082491 -s 0 -d 1 -p poisson -e 30 -c 0 -i 15 -a 0 -x {0.0 1.0 15 ------- null}
h -t 0.107613710082491 -s 0 -d 1 -p poisson -e 30 -c 0 -i 15 -a 0 -x {0.0 1.0 -1 ------- null}
- -t 0.107853710082491 -s 0 -d 1 -p poisson -e 210 -c 0 -i 16 -a 0 -x {0.0 1.0 16 ------- null}
h -t 0.107853710082491 -s 0 -d 1 -p poisson -e 210 -c 0 -i 16 -a 0 -x {0.0 1.0 -1 ------- null}
r -t 0.109213710082491 -s 0 -d 1 -p poisson -e 210 -c 0 -i 9 -a 0 -x {0.0 1.0 9 ------- null}
- -t 0.109533710082491 -s 0 -d 1 -p poisson -e 210 -c 0 -i 17 -a 0 -x {0.0 1.0 17 ------- null}
h -t 0.109533710082491 -s 0 -d 1 -p poisson -e 210 -c 0 -i 17 -a 0 -x {0.0 1.0 -1 ------- null}
r -t 0.110893710082491 -s 0 -d 1 -p poisson -e 210 -c 0 -i 10 -a 0 -x {0.0 1.0 10 ------- null}
- -t 0.111213710082491 -s 0 -d 1 -p poisson -e 210 -c 0 -i 18 -a 0 -x {0.0 1.0 18 ------- null}
h -t 0.111213710082491 -s 0 -d 1 -p poisson -e 210 -c 0 -i 18 -a 0 -x {0.0 1.0 -1 ------- null}
r -t 0.112573710082491 -s 0 -d 1 -p poisson -e 210 -c 0 -i 11 -a 0 -x {0.0 1.0 11 ------- null}
- -t 0.112893710082491 -s 0 -d 1 -p poisson -e 210 -c 0 -i 19 -a 0 -x {0.0 1.0 19 ------- null}
h -t 0.112893710082491 -s 0 -d 1 -p poisson -e 210 -c 0 -i 19 -a 0 -x {0.0 1.0 -1 ------- null}
r -t 0.114253710082491 -s 0 -d 1 -p poisson -e 210 -c 0 -i 12 -a 0 -x {0.0 1.0 12 ------- null}
- -t 0.114573710082491 -s 0 -d 1 -p poisson -e 210 -c 0 -i 20 -a 0 -x {0.0 1.0 20 ------- null}
h -t 0.114573710082491 -s 0 -d 1 -p poisson -e 210 -c 0 -i 20 -a 0 -x {0.0 1.0 -1 ------- null}
r -t 0.115933710082491 -s 0 -d 1 -p poisson -e 210 -c 0 -i 13 -a 0 -x {0.0 1.0 13 ------- null}
- -t 0.116253710082491 -s 0 -d 1 -p poisson -e 210 -c 0 -i 21 -a 0 -x {0.0 1.0 21 ------- null}
h -t 0.116253710082491 -s 0 -d 1 -p poisson -e 210 -c 0 -i 21 -a 0 -x {0.0 1.0 -1 ------- null}
r -t 0.117613710082491 -s 0 -d 1 -p poisson -e 210 -c 0 -i 14 -a 0 -x {0.0 1.0 14 ------- null}
r -t 0.117853710082491 -s 0 -d 1 -p poisson -e 30 -c 0 -i 15 -a 0 -x {0.0 1.0 15 ------- null}
- -t 0.117933710082491 -s 0 -d 1 -p poisson -e 210 -c 0 -i 22 -a 0 -x {0.0 1.0 22 ------- null}
h -t 0.117933710082491 -s 0 -d 1 -p poisson -e 210 -c 0 -i 22 -a 0 -x {0.0 1.0 -1 ------- null}
r -t 0.119533710082491 -s 0 -d 1 -p poisson -e 210 -c 0 -i 16 -a 0 -x {0.0 1.0 16 ------- null}
- -t 0.119613710082491 -s 0 -d 1 -p poisson -e 30 -c 0 -i 23 -a 0 -x {0.0 1.0 23 ------- null}
h -t 0.119613710082491 -s 0 -d 1 -p poisson -e 30 -c 0 -i 23 -a 0 -x {0.0 1.0 -1 ------- null}
r -t 0.121213710082491 -s 0 -d 1 -p poisson -e 210 -c 0 -i 17 -a 0 -x {0.0 1.0 17 ------- null}
r -t 0.122893710082491 -s 0 -d 1 -p poisson -e 210 -c 0 -i 18 -a 0 -x {0.0 1.0 18 ------- null}
r -t 0.124573710082491 -s 0 -d 1 -p poisson -e 210 -c 0 -i 19 -a 0 -x {0.0 1.0 19 ------- null}
r -t 0.126253710082491 -s 0 -d 1 -p poisson -e 210 -c 0 -i 20 -a 0 -x {0.0 1.0 20 ------- null}
r -t 0.127933710082491 -s 0 -d 1 -p poisson -e 210 -c 0 -i 21 -a 0 -x {0.0 1.0 21 ------- null}
r -t 0.129613710082491 -s 0 -d 1 -p poisson -e 210 -c 0 -i 22 -a 0 -x {0.0 1.0 22 ------- null}
r -t 0.129853710082491 -s 0 -d 1 -p poisson -e 30 -c 0 -i 23 -a 0 -x {0.0 1.0 23 ------- null}
+ -t 0.153950350489539 -s 0 -d 1 -p poisson -e 210 -c 0 -i 24 -a 0 -x {0.0 1.0 24 ------- null}
- -t 0.153950350489539 -s 0 -d 1 -p poisson -e 210 -c 0 -i 24 -a 0 -x {0.0 1.0 24 ------- null}
h -t 0.153950350489539 -s 0 -d 1 -p poisson -e 210 -c 0 -i 24 -a 0 -x {0.0 1.0 -1 ------- null}
+ -t 0.153950350489539 -s 0 -d 1 -p poisson -e 210 -c 0 -i 25 -a 0 -x {0.0 1.0 25 ------- null}
+ -t 0.153950350489539 -s 0 -d 1 -p poisson -e 210 -c 0 -i 26 -a 0 -x {0.0 1.0 26 ------- null}
+ -t 0.153950350489539 -s 0 -d 1 -p poisson -e 210 -c 0 -i 27 -a 0 -x {0.0 1.0 27 ------- null}
+ -t 0.153950350489539 -s 0 -d 1 -p poisson -e 210 -c 0 -i 28 -a 0 -x {0.0 1.0 28 ------- null}
+ -t 0.153950350489539 -s 0 -d 1 -p poisson -e 210 -c 0 -i 29 -a 0 -x {0.0 1.0 29 ------- null}
+ -t 0.153950350489539 -s 0 -d 1 -p poisson -e 210 -c 0 -i 30 -a 0 -x {0.0 1.0 30 ------- null}
+ -t 0.153950350489539 -s 0 -d 1 -p poisson -e 30 -c 0 -i 31 -a 0 -x {0.0 1.0 31 ------- null}
- -t 0.155630350489539 -s 0 -d 1 -p poisson -e 210 -c 0 -i 25 -a 0 -x {0.0 1.0 25 ------- null}
h -t 0.155630350489539 -s 0 -d 1 -p poisson -e 210 -c 0 -i 25 -a 0 -x {0.0 1.0 -1 ------- null}
- -t 0.157310350489539 -s 0 -d 1 -p poisson -e 210 -c 0 -i 26 -a 0 -x {0.0 1.0 26 ------- null}
h -t 0.157310350489539 -s 0 -d 1 -p poisson -e 210 -c 0 -i 26 -a 0 -x {0.0 1.0 -1 ------- null}
- -t 0.158990350489538 -s 0 -d 1 -p poisson -e 210 -c 0 -i 27 -a 0 -x {0.0 1.0 27 ------- null}
h -t 0.158990350489538 -s 0 -d 1 -p poisson -e 210 -c 0 -i 27 -a 0 -x {0.0 1.0 -1 ------- null}
- -t 0.160670350489538 -s 0 -d 1 -p poisson -e 210 -c 0 -i 28 -a 0 -x {0.0 1.0 28 ------- null}
h -t 0.160670350489538 -s 0 -d 1 -p poisson -e 210 -c 0 -i 28 -a 0 -x {0.0 1.0 -1 ------- null}
- -t 0.162350350489538 -s 0 -d 1 -p poisson -e 210 -c 0 -i 29 -a 0 -x {0.0 1.0 29 ------- null}
h -t 0.162350350489538 -s 0 -d 1 -p poisson -e 210 -c 0 -i 29 -a 0 -x {0.0 1.0 -1 ------- null}
- -t 0.164030350489538 -s 0 -d 1 -p poisson -e 210 -c 0 -i 30 -a 0 -x {0.0 1.0 30 ------- null}
h -t 0.164030350489538 -s 0 -d 1 -p poisson -e 210 -c 0 -i 30 -a 0 -x {0.0 1.0 -1 ------- null}
r -t 0.165630350489539 -s 0 -d 1 -p poisson -e 210 -c 0 -i 24 -a 0 -x {0.0 1.0 24 ------- null}
- -t 0.165710350489538 -s 0 -d 1 -p poisson -e 30 -c 0 -i 31 -a 0 -x {0.0 1.0 31 ------- null}
h -t 0.165710350489538 -s 0 -d 1 -p poisson -e 30 -c 0 -i 31 -a 0 -x {0.0 1.0 -1 ------- null}
r -t 0.167310350489539 -s 0 -d 1 -p poisson -e 210 -c 0 -i 25 -a 0 -x {0.0 1.0 25 ------- null}
r -t 0.168990350489539 -s 0 -d 1 -p poisson -e 210 -c 0 -i 26 -a 0 -x {0.0 1.0 26 ------- null}
r -t 0.170670350489538 -s 0 -d 1 -p poisson -e 210 -c 0 -i 27 -a 0 -x {0.0 1.0 27 ------- null}
r -t 0.172350350489538 -s 0 -d 1 -p poisson -e 210 -c 0 -i 28 -a 0 -x {0.0 1.0 28 ------- null}
r -t 0.174030350489538 -s 0 -d 1 -p poisson -e 210 -c 0 -i 29 -a 0 -x {0.0 1.0 29 ------- null}
r -t 0.175710350489538 -s 0 -d 1 -p poisson -e 210 -c 0 -i 30 -a 0 -x {0.0 1.0 30 ------- null}
r -t 0.175950350489538 -s 0 -d 1 -p poisson -e 30 -c 0 -i 31 -a 0 -x {0.0 1.0 31 ------- null}
+ -t 0.183098655805601 -s 0 -d 1 -p poisson -e 210 -c 0 -i 32 -a 0 -x {0.0 1.0 32 ------- null}
- -t 0.183098655805601 -s 0 -d 1 -p poisson -e 210 -c 0 -i 32 -a 0 -x {0.0 1.0 32 ------- null}
h -t 0.183098655805601 -s 0 -d 1 -p poisson -e 210 -c 0 -i 32 -a 0 -x {0.0 1.0 -1 ------- null}
+ -t 0.183098655805601 -s 0 -d 1 -p poisson -e 210 -c 0 -i 33 -a 0 -x {0.0 1.0 33 ------- null}
+ -t 0.183098655805601 -s 0 -d 1 -p poisson -e 210 -c 0 -i 34 -a 0 -x {0.0 1.0 34 ------- null}
+ -t 0.183098655805601 -s 0 -d 1 -p poisson -e 210 -c 0 -i 35 -a 0 -x {0.0 1.0 35 ------- null}
+ -t 0.183098655805601 -s 0 -d 1 -p poisson -e 210 -c 0 -i 36 -a 0 -x {0.0 1.0 36 ------- null}
+ -t 0.183098655805601 -s 0 -d 1 -p poisson -e 210 -c 0 -i 37 -a 0 -x {0.0 1.0 37 ------- null}
+ -t 0.183098655805601 -s 0 -d 1 -p poisson -e 210 -c 0 -i 38 -a 0 -x {0.0 1.0 38 ------- null}
+ -t 0.183098655805601 -s 0 -d 1 -p poisson -e 30 -c 0 -i 39 -a 0 -x {0.0 1.0 39 ------- null}
- -t 0.184778655805601 -s 0 -d 1 -p poisson -e 210 -c 0 -i 33 -a 0 -x {0.0 1.0 33 ------- null}
h -t 0.184778655805601 -s 0 -d 1 -p poisson -e 210 -c 0 -i 33 -a 0 -x {0.0 1.0 -1 ------- null}
- -t 0.186458655805601 -s 0 -d 1 -p poisson -e 210 -c 0 -i 34 -a 0 -x {0.0 1.0 34 ------- null}
h -t 0.186458655805601 -s 0 -d 1 -p poisson -e 210 -c 0 -i 34 -a 0 -x {0.0 1.0 -1 ------- null}
- -t 0.188138655805601 -s 0 -d 1 -p poisson -e 210 -c 0 -i 35 -a 0 -x {0.0 1.0 35 ------- null}
h -t 0.188138655805601 -s 0 -d 1 -p poisson -e 210 -c 0 -i 35 -a 0 -x {0.0 1.0 -1 ------- null}
- -t 0.189818655805601 -s 0 -d 1 -p poisson -e 210 -c 0 -i 36 -a 0 -x {0.0 1.0 36 ------- null}
h -t 0.189818655805601 -s 0 -d 1 -p poisson -e 210 -c 0 -i 36 -a 0 -x {0.0 1.0 -1 ------- null}
- -t 0.191498655805601 -s 0 -d 1 -p poisson -e 210 -c 0 -i 37 -a 0 -x {0.0 1.0 37 ------- null}
h -t 0.191498655805601 -s 0 -d 1 -p poisson -e 210 -c 0 -i 37 -a 0 -x {0.0 1.0 -1 ------- null}
+ -t 0.192918463696343 -s 0 -d 1 -p poisson -e 210 -c 0 -i 40 -a 0 -x {0.0 1.0 40 ------- null}
+ -t 0.192918463696343 -s 0 -d 1 -p poisson -e 210 -c 0 -i 41 -a 0 -x {0.0 1.0 41 ------- null}
+ -t 0.192918463696343 -s 0 -d 1 -p poisson -e 210 -c 0 -i 42 -a 0 -x {0.0 1.0 42 ------- null}
+ -t 0.192918463696343 -s 0 -d 1 -p poisson -e 210 -c 0 -i 43 -a 0 -x {0.0 1.0 43 ------- null}
+ -t 0.192918463696343 -s 0 -d 1 -p poisson -e 210 -c 0 -i 44 -a 0 -x {0.0 1.0 44 ------- null}
+ -t 0.192918463696343 -s 0 -d 1 -p poisson -e 210 -c 0 -i 45 -a 0 -x {0.0 1.0 45 ------- null}
+ -t 0.192918463696343 -s 0 -d 1 -p poisson -e 210 -c 0 -i 46 -a 0 -x {0.0 1.0 46 ------- null}
+ -t 0.192918463696343 -s 0 -d 1 -p poisson -e 30 -c 0 -i 47 -a 0 -x {0.0 1.0 47 ------- null}
- -t 0.193178655805601 -s 0 -d 1 -p poisson -e 210 -c 0 -i 38 -a 0 -x {0.0 1.0 38 ------- null}
h -t 0.193178655805601 -s 0 -d 1 -p poisson -e 210 -c 0 -i 38 -a 0 -x {0.0 1.0 -1 ------- null}
r -t 0.194778655805601 -s 0 -d 1 -p poisson -e 210 -c 0 -i 32 -a 0 -x {0.0 1.0 32 ------- null}
- -t 0.194858655805601 -s 0 -d 1 -p poisson -e 30 -c 0 -i 39 -a 0 -x {0.0 1.0 39 ------- null}
h -t 0.194858655805601 -s 0 -d 1 -p poisson -e 30 -c 0 -i 39 -a 0 -x {0.0 1.0 -1 ------- null}
- -t 0.195098655805601 -s 0 -d 1 -p poisson -e 210 -c 0 -i 40 -a 0 -x {0.0 1.0 40 ------- null}
h -t 0.195098655805601 -s 0 -d 1 -p poisson -e 210 -c 0 -i 40 -a 0 -x {0.0 1.0 -1 ------- null}
+ -t 0.195608861201049 -s 0 -d 1 -p poisson -e 210 -c 0 -i 48 -a 0 -x {0.0 1.0 48 ------- null}
+ -t 0.195608861201049 -s 0 -d 1 -p poisson -e 210 -c 0 -i 49 -a 0 -x {0.0 1.0 49 ------- null}
+ -t 0.195608861201049 -s 0 -d 1 -p poisson -e 210 -c 0 -i 50 -a 0 -x {0.0 1.0 50 ------- null}
+ -t 0.195608861201049 -s 0 -d 1 -p poisson -e 210 -c 0 -i 51 -a 0 -x {0.0 1.0 51 ------- null}
+ -t 0.195608861201049 -s 0 -d 1 -p poisson -e 210 -c 0 -i 52 -a 0 -x {0.0 1.0 52 ------- null}
+ -t 0.195608861201049 -s 0 -d 1 -p poisson -e 210 -c 0 -i 53 -a 0 -x {0.0 1.0 53 ------- null}
+ -t 0.195608861201049 -s 0 -d 1 -p poisson -e 210 -c 0 -i 54 -a 0 -x {0.0 1.0 54 ------- null}
+ -t 0.195608861201049 -s 0 -d 1 -p poisson -e 30 -c 0 -i 55 -a 0 -x {0.0 1.0 55 ------- null}
r -t 0.196458655805601 -s 0 -d 1 -p poisson -e 210 -c 0 -i 33 -a 0 -x {0.0 1.0 33 ------- null}
- -t 0.196778655805601 -s 0 -d 1 -p poisson -e 210 -c 0 -i 41 -a 0 -x {0.0 1.0 41 ------- null}
h -t 0.196778655805601 -s 0 -d 1 -p poisson -e 210 -c 0 -i 41 -a 0 -x {0.0 1.0 -1 ------- null}
r -t 0.198138655805601 -s 0 -d 1 -p poisson -e 210 -c 0 -i 34 -a 0 -x {0.0 1.0 34 ------- null}
- -t 0.198458655805601 -s 0 -d 1 -p poisson -e 210 -c 0 -i 42 -a 0 -x {0.0 1.0 42 ------- null}
h -t 0.198458655805601 -s 0 -d 1 -p poisson -e 210 -c 0 -i 42 -a 0 -x {0.0 1.0 -1 ------- null}
r -t 0.199818655805601 -s 0 -d 1 -p poisson -e 210 -c 0 -i 35 -a 0 -x {0.0 1.0 35 ------- null}
- -t 0.200138655805601 -s 0 -d 1 -p poisson -e 210 -c 0 -i 43 -a 0 -x {0.0 1.0 43 ------- null}
h -t 0.200138655805601 -s 0 -d 1 -p poisson -e 210 -c 0 -i 43 -a 0 -x {0.0 1.0 -1 ------- null}
r -t 0.201498655805601 -s 0 -d 1 -p poisson -e 210 -c 0 -i 36 -a 0 -x {0.0 1.0 36 ------- null}
- -t 0.201818655805601 -s 0 -d 1 -p poisson -e 210 -c 0 -i 44 -a 0 -x {0.0 1.0 44 ------- null}
h -t 0.201818655805601 -s 0 -d 1 -p poisson -e 210 -c 0 -i 44 -a 0 -x {0.0 1.0 -1 ------- null}
r -t 0.203178655805601 -s 0 -d 1 -p poisson -e 210 -c 0 -i 37 -a 0 -x {0.0 1.0 37 ------- null}
- -t 0.203498655805601 -s 0 -d 1 -p poisson -e 210 -c 0 -i 45 -a 0 -x {0.0 1.0 45 ------- null}
h -t 0.203498655805601 -s 0 -d 1 -p poisson -e 210 -c 0 -i 45 -a 0 -x {0.0 1.0 -1 ------- null}
r -t 0.204858655805601 -s 0 -d 1 -p poisson -e 210 -c 0 -i 38 -a 0 -x {0.0 1.0 38 ------- null}
r -t 0.205098655805601 -s 0 -d 1 -p poisson -e 30 -c 0 -i 39 -a 0 -x {0.0 1.0 39 ------- null}
- -t 0.205178655805601 -s 0 -d 1 -p poisson -e 210 -c 0 -i 46 -a 0 -x {0.0 1.0 46 ------- null}
h -t 0.205178655805601 -s 0 -d 1 -p poisson -e 210 -c 0 -i 46 -a 0 -x {0.0 1.0 -1 ------- null}
r -t 0.206778655805601 -s 0 -d 1 -p poisson -e 210 -c 0 -i 40 -a 0 -x {0.0 1.0 40 ------- null}
- -t 0.206858655805601 -s 0 -d 1 -p poisson -e 30 -c 0 -i 47 -a 0 -x {0.0 1.0 47 ------- null}
h -t 0.206858655805601 -s 0 -d 1 -p poisson -e 30 -c 0 -i 47 -a 0 -x {0.0 1.0 -1 ------- null}
- -t 0.207098655805601 -s 0 -d 1 -p poisson -e 210 -c 0 -i 48 -a 0 -x {0.0 1.0 48 ------- null}
h -t 0.207098655805601 -s 0 -d 1 -p poisson -e 210 -c 0 -i 48 -a 0 -x {0.0 1.0 -1 ------- null}
r -t 0.208458655805601 -s 0 -d 1 -p poisson -e 210 -c 0 -i 41 -a 0 -x {0.0 1.0 41 ------- null}
- -t 0.208778655805601 -s 0 -d 1 -p poisson -e 210 -c 0 -i 49 -a 0 -x {0.0 1.0 49 ------- null}
h -t 0.208778655805601 -s 0 -d 1 -p poisson -e 210 -c 0 -i 49 -a 0 -x {0.0 1.0 -1 ------- null}
+ -t 0.209548951975852 -s 0 -d 1 -p poisson -e 210 -c 0 -i 56 -a 0 -x {0.0 1.0 56 ------- null}
+ -t 0.209548951975852 -s 0 -d 1 -p poisson -e 210 -c 0 -i 57 -a 0 -x {0.0 1.0 57 ------- null}
+ -t 0.209548951975852 -s 0 -d 1 -p poisson -e 210 -c 0 -i 58 -a 0 -x {0.0 1.0 58 ------- null}
+ -t 0.209548951975852 -s 0 -d 1 -p poisson -e 210 -c 0 -i 59 -a 0 -x {0.0 1.0 59 ------- null}
+ -t 0.209548951975852 -s 0 -d 1 -p poisson -e 210 -c 0 -i 60 -a 0 -x {0.0 1.0 60 ------- null}
+ -t 0.209548951975852 -s 0 -d 1 -p poisson -e 210 -c 0 -i 61 -a 0 -x {0.0 1.0 61 ------- null}
+ -t 0.209548951975852 -s 0 -d 1 -p poisson -e 210 -c 0 -i 62 -a 0 -x {0.0 1.0 62 ------- null}
+ -t 0.209548951975852 -s 0 -d 1 -p poisson -e 30 -c 0 -i 63 -a 0 -x {0.0 1.0 63 ------- null}
r -t 0.210138655805601 -s 0 -d 1 -p poisson -e 210 -c 0 -i 42 -a 0 -x {0.0 1.0 42 ------- null}
- -t 0.210458655805601 -s 0 -d 1 -p poisson -e 210 -c 0 -i 50 -a 0 -x {0.0 1.0 50 ------- null}
h -t 0.210458655805601 -s 0 -d 1 -p poisson -e 210 -c 0 -i 50 -a 0 -x {0.0 1.0 -1 ------- null}
r -t 0.211818655805601 -s 0 -d 1 -p poisson -e 210 -c 0 -i 43 -a 0 -x {0.0 1.0 43 ------- null}
+ -t 0.211982044349168 -s 0 -d 1 -p poisson -e 210 -c 0 -i 64 -a 0 -x {0.0 1.0 64 ------- null}
+ -t 0.211982044349168 -s 0 -d 1 -p poisson -e 210 -c 0 -i 65 -a 0 -x {0.0 1.0 65 ------- null}
+ -t 0.211982044349168 -s 0 -d 1 -p poisson -e 210 -c 0 -i 66 -a 0 -x {0.0 1.0 66 ------- null}
+ -t 0.211982044349168 -s 0 -d 1 -p poisson -e 210 -c 0 -i 67 -a 0 -x {0.0 1.0 67 ------- null}
+ -t 0.211982044349168 -s 0 -d 1 -p poisson -e 210 -c 0 -i 68 -a 0 -x {0.0 1.0 68 ------- null}
+ -t 0.211982044349168 -s 0 -d 1 -p poisson -e 210 -c 0 -i 69 -a 0 -x {0.0 1.0 69 ------- null}
+ -t 0.211982044349168 -s 0 -d 1 -p poisson -e 210 -c 0 -i 70 -a 0 -x {0.0 1.0 70 ------- null}
+ -t 0.211982044349168 -s 0 -d 1 -p poisson -e 30 -c 0 -i 71 -a 0 -x {0.0 1.0 71 ------- null}
- -t 0.212138655805601 -s 0 -d 1 -p poisson -e 210 -c 0 -i 51 -a 0 -x {0.0 1.0 51 ------- null}
h -t 0.212138655805601 -s 0 -d 1 -p poisson -e 210 -c 0 -i 51 -a 0 -x {0.0 1.0 -1 ------- null}
r -t 0.213498655805601 -s 0 -d 1 -p poisson -e 210 -c 0 -i 44 -a 0 -x {0.0 1.0 44 ------- null}
- -t 0.213818655805601 -s 0 -d 1 -p poisson -e 210 -c 0 -i 52 -a 0 -x {0.0 1.0 52 ------- null}
h -t 0.213818655805601 -s 0 -d 1 -p poisson -e 210 -c 0 -i 52 -a 0 -x {0.0 1.0 -1 ------- null}
r -t 0.215178655805601 -s 0 -d 1 -p poisson -e 210 -c 0 -i 45 -a 0 -x {0.0 1.0 45 ------- null}
- -t 0.215498655805601 -s 0 -d 1 -p poisson -e 210 -c 0 -i 53 -a 0 -x {0.0 1.0 53 ------- null}
h -t 0.215498655805601 -s 0 -d 1 -p poisson -e 210 -c 0 -i 53 -a 0 -x {0.0 1.0 -1 ------- null}
r -t 0.216858655805601 -s 0 -d 1 -p poisson -e 210 -c 0 -i 46 -a 0 -x {0.0 1.0 46 ------- null}
r -t 0.217098655805601 -s 0 -d 1 -p poisson -e 30 -c 0 -i 47 -a 0 -x {0.0 1.0 47 ------- null}
- -t 0.217178655805601 -s 0 -d 1 -p poisson -e 210 -c 0 -i 54 -a 0 -x {0.0 1.0 54 ------- null}
h -t 0.217178655805601 -s 0 -d 1 -p poisson -e 210 -c 0 -i 54 -a 0 -x {0.0 1.0 -1 ------- null}
r -t 0.218778655805601 -s 0 -d 1 -p poisson -e 210 -c 0 -i 48 -a 0 -x {0.0 1.0 48 ------- null}
- -t 0.218858655805601 -s 0 -d 1 -p poisson -e 30 -c 0 -i 55 -a 0 -x {0.0 1.0 55 ------- null}
h -t 0.218858655805601 -s 0 -d 1 -p poisson -e 30 -c 0 -i 55 -a 0 -x {0.0 1.0 -1 ------- null}
- -t 0.219098655805601 -s 0 -d 1 -p poisson -e 210 -c 0 -i 56 -a 0 -x {0.0 1.0 56 ------- null}
h -t 0.219098655805601 -s 0 -d 1 -p poisson -e 210 -c 0 -i 56 -a 0 -x {0.0 1.0 -1 ------- null}
r -t 0.220458655805601 -s 0 -d 1 -p poisson -e 210 -c 0 -i 49 -a 0 -x {0.0 1.0 49 ------- null}
- -t 0.220778655805601 -s 0 -d 1 -p poisson -e 210 -c 0 -i 57 -a 0 -x {0.0 1.0 57 ------- null}
h -t 0.220778655805601 -s 0 -d 1 -p poisson -e 210 -c 0 -i 57 -a 0 -x {0.0 1.0 -1 ------- null}
r -t 0.222138655805601 -s 0 -d 1 -p poisson -e 210 -c 0 -i 50 -a 0 -x {0.0 1.0 50 ------- null}
- -t 0.222458655805601 -s 0 -d 1 -p poisson -e 210 -c 0 -i 58 -a 0 -x {0.0 1.0 58 ------- null}
h -t 0.222458655805601 -s 0 -d 1 -p poisson -e 210 -c 0 -i 58 -a 0 -x {0.0 1.0 -1 ------- null}
r -t 0.223818655805601 -s 0 -d 1 -p poisson -e 210 -c 0 -i 51 -a 0 -x {0.0 1.0 51 ------- null}
- -t 0.224138655805601 -s 0 -d 1 -p poisson -e 210 -c 0 -i 59 -a 0 -x {0.0 1.0 59 ------- null}
h -t 0.224138655805601 -s 0 -d 1 -p poisson -e 210 -c 0 -i 59 -a 0 -x {0.0 1.0 -1 ------- null}
r -t 0.225498655805601 -s 0 -d 1 -p poisson -e 210 -c 0 -i 52 -a 0 -x {0.0 1.0 52 ------- null}
- -t 0.225818655805601 -s 0 -d 1 -p poisson -e 210 -c 0 -i 60 -a 0 -x {0.0 1.0 60 ------- null}
h -t 0.225818655805601 -s 0 -d 1 -p poisson -e 210 -c 0 -i 60 -a 0 -x {0.0 1.0 -1 ------- null}
r -t 0.227178655805601 -s 0 -d 1 -p poisson -e 210 -c 0 -i 53 -a 0 -x {0.0 1.0 53 ------- null}
- -t 0.227498655805601 -s 0 -d 1 -p poisson -e 210 -c 0 -i 61 -a 0 -x {0.0 1.0 61 ------- null}
h -t 0.227498655805601 -s 0 -d 1 -p poisson -e 210 -c 0 -i 61 -a 0 -x {0.0 1.0 -1 ------- null}
r -t 0.228858655805601 -s 0 -d 1 -p poisson -e 210 -c 0 -i 54 -a 0 -x {0.0 1.0 54 ------- null}
r -t 0.229098655805601 -s 0 -d 1 -p poisson -e 30 -c 0 -i 55 -a 0 -x {0.0 1.0 55 ------- null}
- -t 0.229178655805601 -s 0 -d 1 -p poisson -e 210 -c 0 -i 62 -a 0 -x {0.0 1.0 62 ------- null}
h -t 0.229178655805601 -s 0 -d 1 -p poisson -e 210 -c 0 -i 62 -a 0 -x {0.0 1.0 -1 ------- null}
+ -t 0.229380434853756 -s 0 -d 1 -p poisson -e 210 -c 0 -i 72 -a 0 -x {0.0 1.0 72 ------- null}
+ -t 0.229380434853756 -s 0 -d 1 -p poisson -e 210 -c 0 -i 73 -a 0 -x {0.0 1.0 73 ------- null}
+ -t 0.229380434853756 -s 0 -d 1 -p poisson -e 210 -c 0 -i 74 -a 0 -x {0.0 1.0 74 ------- null}
+ -t 0.229380434853756 -s 0 -d 1 -p poisson -e 210 -c 0 -i 75 -a 0 -x {0.0 1.0 75 ------- null}
+ -t 0.229380434853756 -s 0 -d 1 -p poisson -e 210 -c 0 -i 76 -a 0 -x {0.0 1.0 76 ------- null}
+ -t 0.229380434853756 -s 0 -d 1 -p poisson -e 210 -c 0 -i 77 -a 0 -x {0.0 1.0 77 ------- null}
+ -t 0.229380434853756 -s 0 -d 1 -p poisson -e 210 -c 0 -i 78 -a 0 -x {0.0 1.0 78 ------- null}
+ -t 0.229380434853756 -s 0 -d 1 -p poisson -e 30 -c 0 -i 79 -a 0 -x {0.0 1.0 79 ------- null}
r -t 0.230778655805601 -s 0 -d 1 -p poisson -e 210 -c 0 -i 56 -a 0 -x {0.0 1.0 56 ------- null}
- -t 0.230858655805601 -s 0 -d 1 -p poisson -e 30 -c 0 -i 63 -a 0 -x {0.0 1.0 63 ------- null}
h -t 0.230858655805601 -s 0 -d 1 -p poisson -e 30 -c 0 -i 63 -a 0 -x {0.0 1.0 -1 ------- null}
- -t 0.231098655805601 -s 0 -d 1 -p poisson -e 210 -c 0 -i 64 -a 0 -x {0.0 1.0 64 ------- null}
h -t 0.231098655805601 -s 0 -d 1 -p poisson -e 210 -c 0 -i 64 -a 0 -x {0.0 1.0 -1 ------- null}
r -t 0.232458655805601 -s 0 -d 1 -p poisson -e 210 -c 0 -i 57 -a 0 -x {0.0 1.0 57 ------- null}
- -t 0.232778655805601 -s 0 -d 1 -p poisson -e 210 -c 0 -i 65 -a 0 -x {0.0 1.0 65 ------- null}
h -t 0.232778655805601 -s 0 -d 1 -p poisson -e 210 -c 0 -i 65 -a 0 -x {0.0 1.0 -1 ------- null}
r -t 0.234138655805601 -s 0 -d 1 -p poisson -e 210 -c 0 -i 58 -a 0 -x {0.0 1.0 58 ------- null}
- -t 0.234458655805601 -s 0 -d 1 -p poisson -e 210 -c 0 -i 66 -a 0 -x {0.0 1.0 66 ------- null}
h -t 0.234458655805601 -s 0 -d 1 -p poisson -e 210 -c 0 -i 66 -a 0 -x {0.0 1.0 -1 ------- null}
+ -t 0.234757177537102 -s 0 -d 1 -p poisson -e 210 -c 0 -i 80 -a 0 -x {0.0 1.0 80 ------- null}
+ -t 0.234757177537102 -s 0 -d 1 -p poisson -e 210 -c 0 -i 81 -a 0 -x {0.0 1.0 81 ------- null}
+ -t 0.234757177537102 -s 0 -d 1 -p poisson -e 210 -c 0 -i 82 -a 0 -x {0.0 1.0 82 ------- null}
+ -t 0.234757177537102 -s 0 -d 1 -p poisson -e 210 -c 0 -i 83 -a 0 -x {0.0 1.0 83 ------- null}
+ -t 0.234757177537102 -s 0 -d 1 -p poisson -e 210 -c 0 -i 84 -a 0 -x {0.0 1.0 84 ------- null}
+ -t 0.234757177537102 -s 0 -d 1 -p poisson -e 210 -c 0 -i 85 -a 0 -x {0.0 1.0 85 ------- null}
+ -t 0.234757177537102 -s 0 -d 1 -p poisson -e 210 -c 0 -i 86 -a 0 -x {0.0 1.0 86 ------- null}
+ -t 0.234757177537102 -s 0 -d 1 -p poisson -e 30 -c 0 -i 87 -a 0 -x {0.0 1.0 87 ------- null}
r -t 0.235818655805601 -s 0 -d 1 -p poisson -e 210 -c 0 -i 59 -a 0 -x {0.0 1.0 59 ------- null}
- -t 0.236138655805601 -s 0 -d 1 -p poisson -e 210 -c 0 -i 67 -a 0 -x {0.0 1.0 67 ------- null}
h -t 0.236138655805601 -s 0 -d 1 -p poisson -e 210 -c 0 -i 67 -a 0 -x {0.0 1.0 -1 ------- null}
r -t 0.237498655805601 -s 0 -d 1 -p poisson -e 210 -c 0 -i 60 -a 0 -x {0.0 1.0 60 ------- null}
- -t 0.237818655805601 -s 0 -d 1 -p poisson -e 210 -c 0 -i 68 -a 0 -x {0.0 1.0 68 ------- null}
h -t 0.237818655805601 -s 0 -d 1 -p poisson -e 210 -c 0 -i 68 -a 0 -x {0.0 1.0 -1 ------- null}
r -t 0.239178655805601 -s 0 -d 1 -p poisson -e 210 -c 0 -i 61 -a 0 -x {0.0 1.0 61 ------- null}
- -t 0.239498655805601 -s 0 -d 1 -p poisson -e 210 -c 0 -i 69 -a 0 -x {0.0 1.0 69 ------- null}
h -t 0.239498655805601 -s 0 -d 1 -p poisson -e 210 -c 0 -i 69 -a 0 -x {0.0 1.0 -1 ------- null}
r -t 0.240858655805601 -s 0 -d 1 -p poisson -e 210 -c 0 -i 62 -a 0 -x {0.0 1.0 62 ------- null}
r -t 0.241098655805601 -s 0 -d 1 -p poisson -e 30 -c 0 -i 63 -a 0 -x {0.0 1.0 63 ------- null}
- -t 0.241178655805601 -s 0 -d 1 -p poisson -e 210 -c 0 -i 70 -a 0 -x {0.0 1.0 70 ------- null}
h -t 0.241178655805601 -s 0 -d 1 -p poisson -e 210 -c 0 -i 70 -a 0 -x {0.0 1.0 -1 ------- null}
r -t 0.242778655805601 -s 0 -d 1 -p poisson -e 210 -c 0 -i 64 -a 0 -x {0.0 1.0 64 ------- null}
- -t 0.242858655805601 -s 0 -d 1 -p poisson -e 30 -c 0 -i 71 -a 0 -x {0.0 1.0 71 ------- null}
h -t 0.242858655805601 -s 0 -d 1 -p poisson -e 30 -c 0 -i 71 -a 0 -x {0.0 1.0 -1 ------- null}
- -t 0.243098655805601 -s 0 -d 1 -p poisson -e 210 -c 0 -i 72 -a 0 -x {0.0 1.0 72 ------- null}
h -t 0.243098655805601 -s 0 -d 1 -p poisson -e 210 -c 0 -i 72 -a 0 -x {0.0 1.0 -1 ------- null}
r -t 0.244458655805601 -s 0 -d 1 -p poisson -e 210 -c 0 -i 65 -a 0 -x {0.0 1.0 65 ------- null}
- -t 0.244778655805601 -s 0 -d 1 -p poisson -e 210 -c 0 -i 73 -a 0 -x {0.0 1.0 73 ------- null}
h -t 0.244778655805601 -s 0 -d 1 -p poisson -e 210 -c 0 -i 73 -a 0 -x {0.0 1.0 -1 ------- null}
r -t 0.246138655805601 -s 0 -d 1 -p poisson -e 210 -c 0 -i 66 -a 0 -x {0.0 1.0 66 ------- null}
- -t 0.246458655805601 -s 0 -d 1 -p poisson -e 210 -c 0 -i 74 -a 0 -x {0.0 1.0 74 ------- null}
h -t 0.246458655805601 -s 0 -d 1 -p poisson -e 210 -c 0 -i 74 -a 0 -x {0.0 1.0 -1 ------- null}
r -t 0.247818655805601 -s 0 -d 1 -p poisson -e 210 -c 0 -i 67 -a 0 -x {0.0 1.0 67 ------- null}
- -t 0.248138655805601 -s 0 -d 1 -p poisson -e 210 -c 0 -i 75 -a 0 -x {0.0 1.0 75 ------- null}
h -t 0.248138655805601 -s 0 -d 1 -p poisson -e 210 -c 0 -i 75 -a 0 -x {0.0 1.0 -1 ------- null}
+ -t 0.248847075747543 -s 0 -d 1 -p poisson -e 210 -c 0 -i 88 -a 0 -x {0.0 1.0 88 ------- null}
+ -t 0.248847075747543 -s 0 -d 1 -p poisson -e 210 -c 0 -i 89 -a 0 -x {0.0 1.0 89 ------- null}
+ -t 0.248847075747543 -s 0 -d 1 -p poisson -e 210 -c 0 -i 90 -a 0 -x {0.0 1.0 90 ------- null}
+ -t 0.248847075747543 -s 0 -d 1 -p poisson -e 210 -c 0 -i 91 -a 0 -x {0.0 1.0 91 ------- null}
+ -t 0.248847075747543 -s 0 -d 1 -p poisson -e 210 -c 0 -i 92 -a 0 -x {0.0 1.0 92 ------- null}
+ -t 0.248847075747543 -s 0 -d 1 -p poisson -e 210 -c 0 -i 93 -a 0 -x {0.0 1.0 93 ------- null}