V -t * -v 1.0a5 -a 0
A -t * -n 1 -p 0 -o 0xffffffff -c 31 -a 1
A -t * -h 1 -m 2147483647 -s 0
n -t * -a 0 -s 0 -S UP -v circle -c black -i black
n -t * -a 1 -s 1 -S UP -v circle -c black -i black
l -t * -s 0 -d 1 -S UP -r 250000 -D 0.01 -c black
+ -t 0 -s 0 -d 1 -p poisson -e 210 -c 0 -i 0 -a 0 -x {0.0 1.0 0 ------- null}
- -t 0 -s 0 -d 1 -p poisson -e 210 -c 0 -i 0 -a 0 -x {0.0 1.0 0 ------- null}
h -t 0 -s 0 -d 1 -p poisson -e 210 -c 0 -i 0 -a 0 -x {0.0 1.0 -1 ------- null}
+ -t 0 -s 0 -d 1 -p poisson -e 210 -c 0 -i 1 -a 0 -x {0.0 1.0 1 ------- null}
+ -t 0 -s 0 -d 1 -p poisson -e 210 -c 0 -i 2 -a 0 -x {0.0 1.0 2 ------- null}
+ -t 0 -s 0 -d 1 -p poisson -e 210 -c 0 -i 3 -a 0 -x {0.0 1.0 3 ------- null}
+ -t 0 -s 0 -d 1 -p poisson -e 210 -c 0 -i 4 -a 0 -x {0.0 1.0 4 ------- null}
+ -t 0 -s 0 -d 1 -p poisson -e 210 -c 0 -i 5 -a 0 -x {0.0 1.0 5 ------- null}
+ -t 0 -s 0 -d 1 -p poisson -e 210 -c 0 -i 6 -a 0 -x {0.0 1.0 6 ------- null}
+ -t 0 -s 0 -d 1 -p poisson -e 30 -c 0 -i 7 -a 0 -x {0.0 1.0 7 ------- null}
- -t 0.00672 -s 0 -d 1 -p poisson -e 210 -c 0 -i 1 -a 0 -x {0.0 1.0 1 ------- null}
h -t 0.00672 -s 0 -d 1 -p poisson -e 210 -c 0 -i 1 -a 0 -x {0.0 1.0 -1 ------- null}
- -t 0.01344 -s 0 -d 1 -p poisson -e 210 -c 0 -i 2 -a 0 -x {0.0 1.0 2 ------- null}
h -t 0.01344 -s 0 -d 1 -p poisson -e 210 -c 0 -i 2 -a 0 -x {0.0 1.0 -1 ------- null}
r -t 0.01672 -s 0 -d 1 -p poisson -e 210 -c 0 -i 0 -a 0 -x {0.0 1.0 0 ------- null}
- -t 0.02016 -s 0 -d 1 -p poisson -e 210 -c 0 -i 3 -a 0 -x {0.0 1.0 3 ------- null}
h -t 0.02016 -s 0 -d 1 -p poisson -e 210 -c 0 -i 3 -a 0 -x {0.0 1.0 -1 ------- null}
r -t 0.02344 -s 0 -d 1 -p poisson -e 210 -c 0 -i 1 -a 0 -x {0.0 1.0 1 ------- null}
- -t 0.02688 -s 0 -d 1 -p poisson -e 210 -c 0 -i 4 -a 0 -x {0.0 1.0 4 ------- null}
h -t 0.02688 -s 0 -d 1 -p poisson -e 210 -c 0 -i 4 -a 0 -x {0.0 1.0 -1 ------- null}
r -t 0.03016 -s 0 -d 1 -p poisson -e 210 -c 0 -i 2 -a 0 -x {0.0 1.0 2 ------- null}
- -t 0.0336 -s 0 -d 1 -p poisson -e 210 -c 0 -i 5 -a 0 -x {0.0 1.0 5 ------- null}
h -t 0.0336 -s 0 -d 1 -p poisson -e 210 -c 0 -i 5 -a 0 -x {0.0 1.0 -1 ------- null}
r -t 0.03688 -s 0 -d 1 -p poisson -e 210 -c 0 -i 3 -a 0 -x {0.0 1.0 3 ------- null}
- -t 0.04032 -s 0 -d 1 -p poisson -e 210 -c 0 -i 6 -a 0 -x {0.0 1.0 6 ------- null}
h -t 0.04032 -s 0 -d 1 -p poisson -e 210 -c 0 -i 6 -a 0 -x {0.0 1.0 -1 ------- null}
r -t 0.0436 -s 0 -d 1 -p poisson -e 210 -c 0 -i 4 -a 0 -x {0.0 1.0 4 ------- null}
- -t 0.04704 -s 0 -d 1 -p poisson -e 30 -c 0 -i 7 -a 0 -x {0.0 1.0 7 ------- null}
h -t 0.04704 -s 0 -d 1 -p poisson -e 30 -c 0 -i 7 -a 0 -x {0.0 1.0 -1 ------- null}
r -t 0.05032 -s 0 -d 1 -p poisson -e 210 -c 0 -i 5 -a 0 -x {0.0 1.0 5 ------- null}
r -t 0.05704 -s 0 -d 1 -p poisson -e 210 -c 0 -i 6 -a 0 -x {0.0 1.0 6 ------- null}
r -t 0.058 -s 0 -d 1 -p poisson -e 30 -c 0 -i 7 -a 0 -x {0.0 1.0 7 ------- null}
+ -t 0.0958537100824914 -s 0 -d 1 -p poisson -e 210 -c 0 -i 8 -a 0 -x {0.0 1.0 8 ------- null}
- -t 0.0958537100824914 -s 0 -d 1 -p poisson -e 210 -c 0 -i 8 -a 0 -x {0.0 1.0 8 ------- null}
h -t 0.0958537100824914 -s 0 -d 1 -p poisson -e 210 -c 0 -i 8 -a 0 -x {0.0 1.0 -1 ------- null}
+ -t 0.0958537100824914 -s 0 -d 1 -p poisson -e 210 -c 0 -i 9 -a 0 -x {0.0 1.0 9 ------- null}
+ -t 0.0958537100824914 -s 0 -d 1 -p poisson -e 210 -c 0 -i 10 -a 0 -x {0.0 1.0 10 ------- null}
+ -t 0.0958537100824914 -s 0 -d 1 -p poisson -e 210 -c 0 -i 11 -a 0 -x {0.0 1.0 11 ------- null}
+ -t 0.0958537100824914 -s 0 -d 1 -p poisson -e 210 -c 0 -i 12 -a 0 -x {0.0 1.0 12 ------- null}
+ -t 0.0958537100824914 -s 0 -d 1 -p poisson -e 210 -c 0 -i 13 -a 0 -x {0.0 1.0 13 ------- null}
+ -t 0.0958537100824914 -s 0 -d 1 -p poisson -e 210 -c 0 -i 14 -a 0 -x {0.0 1.0 14 ------- null}
+ -t 0.0958537100824914 -s 0 -d 1 -p poisson -e 30 -c 0 -i 15 -a 0 -x {0.0 1.0 15 ------- null}
- -t 0.102573710082491 -s 0 -d 1 -p poisson -e 210 -c 0 -i 9 -a 0 -x {0.0 1.0 9 ------- null}
h -t 0.102573710082491 -s 0 -d 1 -p poisson -e 210 -c 0 -i 9 -a 0 -x {0.0 1.0 -1 ------- null}
+ -t 0.102900128650664 -s 0 -d 1 -p poisson -e 210 -c 0 -i 16 -a 0 -x {0.0 1.0 16 ------- null}
+ -t 0.102900128650664 -s 0 -d 1 -p poisson -e 210 -c 0 -i 17 -a 0 -x {0.0 1.0 17 ------- null}
+ -t 0.102900128650664 -s 0 -d 1 -p poisson -e 210 -c 0 -i 18 -a 0 -x {0.0 1.0 18 ------- null}
+ -t 0.102900128650664 -s 0 -d 1 -p poisson -e 210 -c 0 -i 19 -a 0 -x {0.0 1.0 19 ------- null}
+ -t 0.102900128650664 -s 0 -d 1 -p poisson -e 210 -c 0 -i 20 -a 0 -x {0.0 1.0 20 ------- null}
+ -t 0.102900128650664 -s 0 -d 1 -p poisson -e 210 -c 0 -i 21 -a 0 -x {0.0 1.0 21 ------- null}
+ -t 0.102900128650664 -s 0 -d 1 -p poisson -e 210 -c 0 -i 22 -a 0 -x {0.0 1.0 22 ------- null}
+ -t 0.102900128650664 -s 0 -d 1 -p poisson -e 30 -c 0 -i 23 -a 0 -x {0.0 1.0 23 ------- null}
- -t 0.109293710082491 -s 0 -d 1 -p poisson -e 210 -c 0 -i 10 -a 0 -x {0.0 1.0 10 ------- null}
h -t 0.109293710082491 -s 0 -d 1 -p poisson -e 210 -c 0 -i 10 -a 0 -x {0.0 1.0 -1 ------- null}
r -t 0.112573710082491 -s 0 -d 1 -p poisson -e 210 -c 0 -i 8 -a 0 -x {0.0 1.0 8 ------- null}
- -t 0.116013710082491 -s 0 -d 1 -p poisson -e 210 -c 0 -i 11 -a 0 -x {0.0 1.0 11 ------- null}
h -t 0.116013710082491 -s 0 -d 1 -p poisson -e 210 -c 0 -i 11 -a 0 -x {0.0 1.0 -1 ------- null}
r -t 0.119293710082491 -s 0 -d 1 -p poisson -e 210 -c 0 -i 9 -a 0 -x {0.0 1.0 9 ------- null}
- -t 0.122733710082491 -s 0 -d 1 -p poisson -e 210 -c 0 -i 12 -a 0 -x {0.0 1.0 12 ------- null}
h -t 0.122733710082491 -s 0 -d 1 -p poisson -e 210 -c 0 -i 12 -a 0 -x {0.0 1.0 -1 ------- null}
r -t 0.126013710082491 -s 0 -d 1 -p poisson -e 210 -c 0 -i 10 -a 0 -x {0.0 1.0 10 ------- null}
- -t 0.129453710082491 -s 0 -d 1 -p poisson -e 210 -c 0 -i 13 -a 0 -x {0.0 1.0 13 ------- null}
h -t 0.129453710082491 -s 0 -d 1 -p poisson -e 210 -c 0 -i 13 -a 0 -x {0.0 1.0 -1 ------- null}
r -t 0.132733710082491 -s 0 -d 1 -p poisson -e 210 -c 0 -i 11 -a 0 -x {0.0 1.0 11 ------- null}
- -t 0.136173710082491 -s 0 -d 1 -p poisson -e 210 -c 0 -i 14 -a 0 -x {0.0 1.0 14 ------- null}
h -t 0.136173710082491 -s 0 -d 1 -p poisson -e 210 -c 0 -i 14 -a 0 -x {0.0 1.0 -1 ------- null}
r -t 0.139453710082491 -s 0 -d 1 -p poisson -e 210 -c 0 -i 12 -a 0 -x {0.0 1.0 12 ------- null}
- -t 0.142893710082491 -s 0 -d 1 -p poisson -e 30 -c 0 -i 15 -a 0 -x {0.0 1.0 15 ------- null}
h -t 0.142893710082491 -s 0 -d 1 -p poisson -e 30 -c 0 -i 15 -a 0 -x {0.0 1.0 -1 ------- null}
- -t 0.143853710082491 -s 0 -d 1 -p poisson -e 210 -c 0 -i 16 -a 0 -x {0.0 1.0 16 ------- null}
h -t 0.143853710082491 -s 0 -d 1 -p poisson -e 210 -c 0 -i 16 -a 0 -x {0.0 1.0 -1 ------- null}
r -t 0.146173710082491 -s 0 -d 1 -p poisson -e 210 -c 0 -i 13 -a 0 -x {0.0 1.0 13 ------- null}
- -t 0.150573710082491 -s 0 -d 1 -p poisson -e 210 -c 0 -i 17 -a 0 -x {0.0 1.0 17 ------- null}
h -t 0.150573710082491 -s 0 -d 1 -p poisson -e 210 -c 0 -i 17 -a 0 -x {0.0 1.0 -1 ------- null}
r -t 0.152893710082491 -s 0 -d 1 -p poisson -e 210 -c 0 -i 14 -a 0 -x {0.0 1.0 14 ------- null}
r -t 0.153853710082491 -s 0 -d 1 -p poisson -e 30 -c 0 -i 15 -a 0 -x {0.0 1.0 15 ------- null}
+ -t 0.153950350489539 -s 0 -d 1 -p poisson -e 210 -c 0 -i 24 -a 0 -x {0.0 1.0 24 ------- null}
+ -t 0.153950350489539 -s 0 -d 1 -p poisson -e 210 -c 0 -i 25 -a 0 -x {0.0 1.0 25 ------- null}
+ -t 0.153950350489539 -s 0 -d 1 -p poisson -e 210 -c 0 -i 26 -a 0 -x {0.0 1.0 26 ------- null}
+ -t 0.153950350489539 -s 0 -d 1 -p poisson -e 210 -c 0 -i 27 -a 0 -x {0.0 1.0 27 ------- null}
+ -t 0.153950350489539 -s 0 -d 1 -p poisson -e 210 -c 0 -i 28 -a 0 -x {0.0 1.0 28 ------- null}
+ -t 0.153950350489539 -s 0 -d 1 -p poisson -e 210 -c 0 -i 29 -a 0 -x {0.0 1.0 29 ------- null}
+ -t 0.153950350489539 -s 0 -d 1 -p poisson -e 210 -c 0 -i 30 -a 0 -x {0.0 1.0 30 ------- null}
+ -t 0.153950350489539 -s 0 -d 1 -p poisson -e 30 -c 0 -i 31 -a 0 -x {0.0 1.0 31 ------- null}
- -t 0.157293710082491 -s 0 -d 1 -p poisson -e 210 -c 0 -i 18 -a 0 -x {0.0 1.0 18 ------- null}
h -t 0.157293710082491 -s 0 -d 1 -p poisson -e 210 -c 0 -i 18 -a 0 -x {0.0 1.0 -1 ------- null}
r -t 0.160573710082491 -s 0 -d 1 -p poisson -e 210 -c 0 -i 16 -a 0 -x {0.0 1.0 16 ------- null}
- -t 0.164013710082491 -s 0 -d 1 -p poisson -e 210 -c 0 -i 19 -a 0 -x {0.0 1.0 19 ------- null}
h -t 0.164013710082491 -s 0 -d 1 -p poisson -e 210 -c 0 -i 19 -a 0 -x {0.0 1.0 -1 ------- null}
r -t 0.167293710082491 -s 0 -d 1 -p poisson -e 210 -c 0 -i 17 -a 0 -x {0.0 1.0 17 ------- null}
- -t 0.170733710082491 -s 0 -d 1 -p poisson -e 210 -c 0 -i 20 -a 0 -x {0.0 1.0 20 ------- null}
h -t 0.170733710082491 -s 0 -d 1 -p poisson -e 210 -c 0 -i 20 -a 0 -x {0.0 1.0 -1 ------- null}
r -t 0.174013710082491 -s 0 -d 1 -p poisson -e 210 -c 0 -i 18 -a 0 -x {0.0 1.0 18 ------- null}
- -t 0.177453710082491 -s 0 -d 1 -p poisson -e 210 -c 0 -i 21 -a 0 -x {0.0 1.0 21 ------- null}
h -t 0.177453710082491 -s 0 -d 1 -p poisson -e 210 -c 0 -i 21 -a 0 -x {0.0 1.0 -1 ------- null}
r -t 0.180733710082491 -s 0 -d 1 -p poisson -e 210 -c 0 -i 19 -a 0 -x {0.0 1.0 19 ------- null}
+ -t 0.183098655805601 -s 0 -d 1 -p poisson -e 210 -c 0 -i 32 -a 0 -x {0.0 1.0 32 ------- null}
+ -t 0.183098655805601 -s 0 -d 1 -p poisson -e 210 -c 0 -i 33 -a 0 -x {0.0 1.0 33 ------- null}
+ -t 0.183098655805601 -s 0 -d 1 -p poisson -e 210 -c 0 -i 34 -a 0 -x {0.0 1.0 34 ------- null}
+ -t 0.183098655805601 -s 0 -d 1 -p poisson -e 210 -c 0 -i 35 -a 0 -x {0.0 1.0 35 ------- null}
+ -t 0.183098655805601 -s 0 -d 1 -p poisson -e 210 -c 0 -i 36 -a 0 -x {0.0 1.0 36 ------- null}
+ -t 0.183098655805601 -s 0 -d 1 -p poisson -e 210 -c 0 -i 37 -a 0 -x {0.0 1.0 37 ------- null}
+ -t 0.183098655805601 -s 0 -d 1 -p poisson -e 210 -c 0 -i 38 -a 0 -x {0.0 1.0 38 ------- null}
+ -t 0.183098655805601 -s 0 -d 1 -p poisson -e 30 -c 0 -i 39 -a 0 -x {0.0 1.0 39 ------- null}
- -t 0.184173710082491 -s 0 -d 1 -p poisson -e 210 -c 0 -i 22 -a 0 -x {0.0 1.0 22 ------- null}
h -t 0.184173710082491 -s 0 -d 1 -p poisson -e 210 -c 0 -i 22 -a 0 -x {0.0 1.0 -1 ------- null}
r -t 0.187453710082491 -s 0 -d 1 -p poisson -e 210 -c 0 -i 20 -a 0 -x {0.0 1.0 20 ------- null}
- -t 0.190893710082491 -s 0 -d 1 -p poisson -e 30 -c 0 -i 23 -a 0 -x {0.0 1.0 23 ------- null}
h -t 0.190893710082491 -s 0 -d 1 -p poisson -e 30 -c 0 -i 23 -a 0 -x {0.0 1.0 -1 ------- null}
- -t 0.191853710082491 -s 0 -d 1 -p poisson -e 210 -c 0 -i 24 -a 0 -x {0.0 1.0 24 ------- null}
h -t 0.191853710082491 -s 0 -d 1 -p poisson -e 210 -c 0 -i 24 -a 0 -x {0.0 1.0 -1 ------- null}
+ -t 0.192918463696343 -s 0 -d 1 -p poisson -e 210 -c 0 -i 40 -a 0 -x {0.0 1.0 40 ------- null}
+ -t 0.192918463696343 -s 0 -d 1 -p poisson -e 210 -c 0 -i 41 -a 0 -x {0.0 1.0 41 ------- null}
+ -t 0.192918463696343 -s 0 -d 1 -p poisson -e 210 -c 0 -i 42 -a 0 -x {0.0 1.0 42 ------- null}
+ -t 0.192918463696343 -s 0 -d 1 -p poisson -e 210 -c 0 -i 43 -a 0 -x {0.0 1.0 43 ------- null}
+ -t 0.192918463696343 -s 0 -d 1 -p poisson -e 210 -c 0 -i 44 -a 0 -x {0.0 1.0 44 ------- null}
+ -t 0.192918463696343 -s 0 -d 1 -p poisson -e 210 -c 0 -i 45 -a 0 -x {0.0 1.0 45 ------- null}
+ -t 0.192918463696343 -s 0 -d 1 -p poisson -e 210 -c 0 -i 46 -a 0 -x {0.0 1.0 46 ------- null}
+ -t 0.192918463696343 -s 0 -d 1 -p poisson -e 30 -c 0 -i 47 -a 0 -x {0.0 1.0 47 ------- null}
r -t 0.194173710082491 -s 0 -d 1 -p poisson -e 210 -c 0 -i 21 -a 0 -x {0.0 1.0 21 ------- null}
+ -t 0.195608861201049 -s 0 -d 1 -p poisson -e 210 -c 0 -i 48 -a 0 -x {0.0 1.0 48 ------- null}
+ -t 0.195608861201049 -s 0 -d 1 -p poisson -e 210 -c 0 -i 49 -a 0 -x {0.0 1.0 49 ------- null}
+ -t 0.195608861201049 -s 0 -d 1 -p poisson -e 210 -c 0 -i 50 -a 0 -x {0.0 1.0 50 ------- null}
+ -t 0.195608861201049 -s 0 -d 1 -p poisson -e 210 -c 0 -i 51 -a 0 -x {0.0 1.0 51 ------- null}
+ -t 0.195608861201049 -s 0 -d 1 -p poisson -e 210 -c 0 -i 52 -a 0 -x {0.0 1.0 52 ------- null}
+ -t 0.195608861201049 -s 0 -d 1 -p poisson -e 210 -c 0 -i 53 -a 0 -x {0.0 1.0 53 ------- null}
+ -t 0.195608861201049 -s 0 -d 1 -p poisson -e 210 -c 0 -i 54 -a 0 -x {0.0 1.0 54 ------- null}
+ -t 0.195608861201049 -s 0 -d 1 -p poisson -e 30 -c 0 -i 55 -a 0 -x {0.0 1.0 55 ------- null}
- -t 0.198573710082491 -s 0 -d 1 -p poisson -e 210 -c 0 -i 25 -a 0 -x {0.0 1.0 25 ------- null}
h -t 0.198573710082491 -s 0 -d 1 -p poisson -e 210 -c 0 -i 25 -a 0 -x {0.0 1.0 -1 ------- null}
r -t 0.200893710082491 -s 0 -d 1 -p poisson -e 210 -c 0 -i 22 -a 0 -x {0.0 1.0 22 ------- null}
r -t 0.201853710082491 -s 0 -d 1 -p poisson -e 30 -c 0 -i 23 -a 0 -x {0.0 1.0 23 ------- null}
- -t 0.205293710082491 -s 0 -d 1 -p poisson -e 210 -c 0 -i 26 -a 0 -x {0.0 1.0 26 ------- null}
h -t 0.205293710082491 -s 0 -d 1 -p poisson -e 210 -c 0 -i 26 -a 0 -x {0.0 1.0 -1 ------- null}
r -t 0.208573710082491 -s 0 -d 1 -p poisson -e 210 -c 0 -i 24 -a 0 -x {0.0 1.0 24 ------- null}
+ -t 0.209548951975852 -s 0 -d 1 -p poisson -e 210 -c 0 -i 56 -a 0 -x {0.0 1.0 56 ------- null}
+ -t 0.209548951975852 -s 0 -d 1 -p poisson -e 210 -c 0 -i 57 -a 0 -x {0.0 1.0 57 ------- null}
+ -t 0.209548951975852 -s 0 -d 1 -p poisson -e 210 -c 0 -i 58 -a 0 -x {0.0 1.0 58 ------- null}
+ -t 0.209548951975852 -s 0 -d 1 -p poisson -e 210 -c 0 -i 59 -a 0 -x {0.0 1.0 59 ------- null}
+ -t 0.209548951975852 -s 0 -d 1 -p poisson -e 210 -c 0 -i 60 -a 0 -x {0.0 1.0 60 ------- null}
+ -t 0.209548951975852 -s 0 -d 1 -p poisson -e 210 -c 0 -i 61 -a 0 -x {0.0 1.0 61 ------- null}
+ -t 0.209548951975852 -s 0 -d 1 -p poisson -e 210 -c 0 -i 62 -a 0 -x {0.0 1.0 62 ------- null}
+ -t 0.209548951975852 -s 0 -d 1 -p poisson -e 30 -c 0 -i 63 -a 0 -x {0.0 1.0 63 ------- null}
+ -t 0.211982044349168 -s 0 -d 1 -p poisson -e 210 -c 0 -i 64 -a 0 -x {0.0 1.0 64 ------- null}
+ -t 0.211982044349168 -s 0 -d 1 -p poisson -e 210 -c 0 -i 65 -a 0 -x {0.0 1.0 65 ------- null}
+ -t 0.211982044349168 -s 0 -d 1 -p poisson -e 210 -c 0 -i 66 -a 0 -x {0.0 1.0 66 ------- null}
+ -t 0.211982044349168 -s 0 -d 1 -p poisson -e 210 -c 0 -i 67 -a 0 -x {0.0 1.0 67 ------- null}
+ -t 0.211982044349168 -s 0 -d 1 -p poisson -e 210 -c 0 -i 68 -a 0 -x {0.0 1.0 68 ------- null}
+ -t 0.211982044349168 -s 0 -d 1 -p poisson -e 210 -c 0 -i 69 -a 0 -x {0.0 1.0 69 ------- null}
+ -t 0.211982044349168 -s 0 -d 1 -p poisson -e 210 -c 0 -i 70 -a 0 -x {0.0 1.0 70 ------- null}
+ -t 0.211982044349168 -s 0 -d 1 -p poisson -e 30 -c 0 -i 71 -a 0 -x {0.0 1.0 71 ------- null}
- -t 0.212013710082491 -s 0 -d 1 -p poisson -e 210 -c 0 -i 27 -a 0 -x {0.0 1.0 27 ------- null}
h -t 0.212013710082491 -s 0 -d 1 -p poisson -e 210 -c 0 -i 27 -a 0 -x {0.0 1.0 -1 ------- null}
r -t 0.215293710082491 -s 0 -d 1 -p poisson -e 210 -c 0 -i 25 -a 0 -x {0.0 1.0 25 ------- null}
- -t 0.218733710082491 -s 0 -d 1 -p poisson -e 210 -c 0 -i 28 -a 0 -x {0.0 1.0 28 ------- null}
h -t 0.218733710082491 -s 0 -d 1 -p poisson -e 210 -c 0 -i 28 -a 0 -x {0.0 1.0 -1 ------- null}
r -t 0.222013710082491 -s 0 -d 1 -p poisson -e 210 -c 0 -i 26 -a 0 -x {0.0 1.0 26 ------- null}
- -t 0.225453710082491 -s 0 -d 1 -p poisson -e 210 -c 0 -i 29 -a 0 -x {0.0 1.0 29 ------- null}
h -t 0.225453710082491 -s 0 -d 1 -p poisson -e 210 -c 0 -i 29 -a 0 -x {0.0 1.0 -1 ------- null}
r -t 0.228733710082491 -s 0 -d 1 -p poisson -e 210 -c 0 -i 27 -a 0 -x {0.0 1.0 27 ------- null}
+ -t 0.229380434853756 -s 0 -d 1 -p poisson -e 210 -c 0 -i 72 -a 0 -x {0.0 1.0 72 ------- null}
+ -t 0.229380434853756 -s 0 -d 1 -p poisson -e 210 -c 0 -i 73 -a 0 -x {0.0 1.0 73 ------- null}
+ -t 0.229380434853756 -s 0 -d 1 -p poisson -e 210 -c 0 -i 74 -a 0 -x {0.0 1.0 74 ------- null}
+ -t 0.229380434853756 -s 0 -d 1 -p poisson -e 210 -c 0 -i 75 -a 0 -x {0.0 1.0 75 ------- null}
+ -t 0.229380434853756 -s 0 -d 1 -p poisson -e 210 -c 0 -i 76 -a 0 -x {0.0 1.0 76 ------- null}
+ -t 0.229380434853756 -s 0 -d 1 -p poisson -e 210 -c 0 -i 77 -a 0 -x {0.0 1.0 77 ------- null}
+ -t 0.229380434853756 -s 0 -d 1 -p poisson -e 210 -c 0 -i 78 -a 0 -x {0.0 1.0 78 ------- null}
+ -t 0.229380434853756 -s 0 -d 1 -p poisson -e 30 -c 0 -i 79 -a 0 -x {0.0 1.0 79 ------- null}
d -t 0.229380434853756 -s 0 -d 1 -p poisson -e 30 -c 0 -i 79 -a 0 -x {0.0 1.0 79 ------- null}
- -t 0.232173710082491 -s 0 -d 1 -p poisson -e 210 -c 0 -i 30 -a 0 -x {0.0 1.0 30 ------- null}
h -t 0.232173710082491 -s 0 -d 1 -p poisson -e 210 -c 0 -i 30 -a 0 -x {0.0 1.0 -1 ------- null}
+ -t 0.234757177537102 -s 0 -d 1 -p poisson -e 210 -c 0 -i 80 -a 0 -x {0.0 1.0 80 ------- null}
+ -t 0.234757177537102 -s 0 -d 1 -p poisson -e 210 -c 0 -i 81 -a 0 -x {0.0 1.0 81 ------- null}
d -t 0.234757177537102 -s 0 -d 1 -p poisson -e 210 -c 0 -i 81 -a 0 -x {0.0 1.0 81 ------- null}
+ -t 0.234757177537102 -s 0 -d 1 -p poisson -e 210 -c 0 -i 82 -a 0 -x {0.0 1.0 82 ------- null}
d -t 0.234757177537102 -s 0 -d 1 -p poisson -e 210 -c 0 -i 82 -a 0 -x {0.0 1.0 82 ------- null}
+ -t 0.234757177537102 -s 0 -d 1 -p poisson -e 210 -c 0 -i 83 -a 0 -x {0.0 1.0 83 ------- null}
d -t 0.234757177537102 -s 0 -d 1 -p poisson -e 210 -c 0 -i 83 -a 0 -x {0.0 1.0 83 ------- null}
+ -t 0.234757177537102 -s 0 -d 1 -p poisson -e 210 -c 0 -i 84 -a 0 -x {0.0 1.0 84 ------- null}
d -t 0.234757177537102 -s 0 -d 1 -p poisson -e 210 -c 0 -i 84 -a 0 -x {0.0 1.0 84 ------- null}
+ -t 0.234757177537102 -s 0 -d 1 -p poisson -e 210 -c 0 -i 85 -a 0 -x {0.0 1.0 85 ------- null}
d -t 0.234757177537102 -s 0 -d 1 -p poisson -e 210 -c 0 -i 85 -a 0 -x {0.0 1.0 85 ------- null}
+ -t 0.234757177537102 -s 0 -d 1 -p poisson -e 210 -c 0 -i 86 -a 0 -x {0.0 1.0 86 ------- null}
d -t 0.234757177537102 -s 0 -d 1 -p poisson -e 210 -c 0 -i 86 -a 0 -x {0.0 1.0 86 ------- null}
+ -t 0.234757177537102 -s 0 -d 1 -p poisson -e 30 -c 0 -i 87 -a 0 -x {0.0 1.0 87 ------- null}
d -t 0.234757177537102 -s 0 -d 1 -p poisson -e 30 -c 0 -i 87 -a 0 -x {0.0 1.0 87 ------- null}
r -t 0.235453710082491 -s 0 -d 1 -p poisson -e 210 -c 0 -i 28 -a 0 -x {0.0 1.0 28 ------- null}
- -t 0.238893710082491 -s 0 -d 1 -p poisson -e 30 -c 0 -i 31 -a 0 -x {0.0 1.0 31 ------- null}
h -t 0.238893710082491 -s 0 -d 1 -p poisson -e 30 -c 0 -i 31 -a 0 -x {0.0 1.0 -1 ------- null}
- -t 0.239853710082491 -s 0 -d 1 -p poisson -e 210 -c 0 -i 32 -a 0 -x {0.0 1.0 32 ------- null}
h -t 0.239853710082491 -s 0 -d 1 -p poisson -e 210 -c 0 -i 32 -a 0 -x {0.0 1.0 -1 ------- null}
r -t 0.242173710082491 -s 0 -d 1 -p poisson -e 210 -c 0 -i 29 -a 0 -x {0.0 1.0 29 ------- null}
- -t 0.246573710082491 -s 0 -d 1 -p poisson -e 210 -c 0 -i 33 -a 0 -x {0.0 1.0 33 ------- null}
h -t 0.246573710082491 -s 0 -d 1 -p poisson -e 210 -c 0 -i 33 -a 0 -x {0.0 1.0 -1 ------- null}
+ -t 0.248847075747543 -s 0 -d 1 -p poisson -e 210 -c 0 -i 88 -a 0 -x {0.0 1.0 88 ------- null}
+ -t 0.248847075747543 -s 0 -d 1 -p poisson -e 210 -c 0 -i 89 -a 0 -x {0.0 1.0 89 ------- null}
+ -t 0.248847075747543 -s 0 -d 1 -p poisson -e 210 -c 0 -i 90 -a 0 -x {0.0 1.0 90 ------- null}
+ -t 0.248847075747543 -s 0 -d 1 -p poisson -e 210 -c 0 -i 91 -a 0 -x {0.0 1.0 91 ------- null}
d -t 0.248847075747543 -s 0 -d 1 -p poisson -e 210 -c 0 -i 91 -a 0 -x {0.0 1.0 91 ------- null}
+ -t 0.248847075747543 -s 0 -d 1 -p poisson -e 210 -c 0 -i 92 -a 0 -x {0.0 1.0 92 ------- null}
d -t 0.248847075747543 -s 0 -d 1 -p poisson -e 210 -c 0 -i 92 -a 0 -x {0.0 1.0 92 ------- null}
+ -t 0.248847075747543 -s 0 -d 1 -p poisson -e 210 -c 0 -i 93 -a 0 -x {0.0 1.0 93 ------- null}
d -t 0.248847075747543 -s 0 -d 1 -p poisson -e 210 -c 0 -i 93 -a 0 -x {0.0 1.0 93 ------- null}
+ -t 0.248847075747543 -s 0 -d 1 -p poisson -e 210 -c 0 -i 94 -a 0 -x {0.0 1.0 94 ------- null}
d -t 0.248847075747543 -s 0 -d 1 -p poisson -e 210 -c 0 -i 94 -a 0 -x {0.0 1.0 94 ------- null}
+ -t 0.248847075747543 -s 0 -d 1 -p poisson -e 30 -c 0 -i 95 -a 0 -x {0.0 1.0 95 ------- null}
d -t 0.248847075747543 -s 0 -d 1 -p poisson -e 30 -c 0 -i 95 -a 0 -x {0.0 1.0 95 ------- null}
r -t 0.248893710082491 -s 0 -d 1 -p poisson -e 210 -c 0 -i 30 -a 0 -x {0.0 1.0 30 ------- null}
r -t 0.249853710082491 -s 0 -d 1 -p poisson -e 30 -c 0 -i 31 -a 0 -x {0.0 1.0 31 ------- null}
+ -t 0.25099195256607 -s 0 -d 1 -p poisson -e 210 -c 0 -i 96 -a 0 -x {0.0 1.0 96 ------- null}
d -t 0.25099195256607 -s 0 -d 1 -p poisson -e 210 -c 0 -i 96 -a 0 -x {0.0 1.0 96 ------- null}
+ -t 0.25099195256607 -s 0 -d 1 -p poisson -e 210 -c 0 -i 97 -a 0 -x {0.0 1.0 97 ------- null}
d -t 0.25099195256607 -s 0 -d 1 -p poisson -e 210 -c 0 -i 97 -a 0 -x {0.0 1.0 97 ------- null}
+ -t 0.25099195256607 -s 0 -d 1 -p poisson -e 210 -c 0 -i 98 -a 0 -x {0.0 1.0 98 ------- null}
d -t 0.25099195256607 -s 0 -d 1 -p poisson -e 210 -c 0 -i 98 -a 0 -x {0.0 1.0 98 ------- null}
+ -t 0.25099195256607 -s 0 -d 1 -p poisson -e 210 -c 0 -i 99 -a 0 -x {0.0 1.0 99 ------- null}
d -t 0.25099195256607 -s 0 -d 1 -p poisson -e 210 -c 0 -i 99 -a 0 -x {0.0 1.0 99 ------- null}
+ -t 0.25099195256607 -s 0 -d 1 -p poisson -e 210 -c 0 -i 100 -a 0 -x {0.0 1.0 100 ------- null}
d -t 0.25099195256607 -s 0 -d 1 -p poisson -e 210 -c 0 -i 100 -a 0 -x {0.0 1.0 100 ------- null}
+ -t 0.25099195256607 -s 0 -d 1 -p poisson -e 210 -c 0 -i 101 -a 0 -x {0.0 1.0 101 ------- null}
d -t 0.25099195256607 -s 0 -d 1 -p poisson -e 210 -c 0 -i 101 -a 0 -x {0.0 1.0 101 ------- null}
+ -t 0.25099195256607 -s 0 -d 1 -p poisson -e 210 -c 0 -i 102 -a 0 -x {0.0 1.0 102 ------- null}
d -t 0.25099195256607 -s 0 -d 1 -p poisson -e 210 -c 0 -i 102 -a 0 -x {0.0 1.0 102 ------- null}
+ -t 0.25099195256607 -s 0 -d 1 -p poisson -e 30 -c 0 -i 103 -a 0 -x {0.0 1.0 103 ------- null}
d -t 0.25099195256607 -s 0 -d 1 -p poisson -e 30 -c 0 -i 103 -a 0 -x {0.0 1.0 103 ------- null}
- -t 0.253293710082491 -s 0 -d 1 -p poisson -e 210 -c 0 -i 34 -a 0 -x {0.0 1.0 34 ------- null}
h -t 0.253293710082491 -s 0 -d 1 -p poisson -e 210 -c 0 -i 34 -a 0 -x {0.0 1.0 -1 ------- null}
r -t 0.256573710082491 -s 0 -d 1 -p poisson -e 210 -c 0 -i 32 -a 0 -x {0.0 1.0 32 ------- null}
- -t 0.260013710082491 -s 0 -d 1 -p poisson -e 210 -c 0 -i 35 -a 0 -x {0.0 1.0 35 ------- null}
h -t 0.260013710082491 -s 0 -d 1 -p poisson -e 210 -c 0 -i 35 -a 0 -x {0.0 1.0 -1 ------- null}
r -t 0.263293710082491 -s 0 -d 1 -p poisson -e 210 -c 0 -i 33 -a 0 -x {0.0 1.0 33 ------- null}
- -t 0.266733710082491 -s 0 -d 1 -p poisson -e 210 -c 0 -i 36 -a 0 -x {0.0 1.0 36 ------- null}
h -t 0.266733710082491 -s 0 -d 1 -p poisson -e 210 -c 0 -i 36 -a 0 -x {0.0 1.0 -1 ------- null}
r -t 0.270013710082491 -s 0 -d 1 -p poisson -e 210 -c 0 -i 34 -a 0 -x {0.0 1.0 34 ------- null}
+ -t 0.272675983986379 -s 0 -d 1 -p poisson -e 210 -c 0 -i 104 -a 0 -x {0.0 1.0 104 ------- null}
+ -t 0.272675983986379 -s 0 -d 1 -p poisson -e 210 -c 0 -i 105 -a 0 -x {0.0 1.0 105 ------- null}
+ -t 0.272675983986379 -s 0 -d 1 -p poisson -e 210 -c 0 -i 106 -a 0 -x {0.0 1.0 106 ------- null}
+ -t 0.272675983986379 -s 0 -d 1 -p poisson -e 210 -c 0 -i 107 -a 0 -x {0.0 1.0 107 ------- null}
d -t 0.272675983986379 -s 0 -d 1 -p poisson -e 210 -c 0 -i 107 -a 0 -x {0.0 1.0 107 ------- null}
+ -t 0.272675983986379 -s 0 -d 1 -p poisson -e 210 -c 0 -i 108 -a 0 -x {0.0 1.0 108 ------- null}
d -t 0.272675983986379 -s 0 -d 1 -p poisson -e 210 -c 0 -i 108 -a 0 -x {0.0 1.0 108 ------- null}
+ -t 0.272675983986379 -s 0 -d 1 -p poisson -e 210 -c 0 -i 109 -a 0 -x {0.0 1.0 109 ------- null}
d -t 0.272675983986379 -s 0 -d 1 -p poisson -e 210 -c 0 -i 109 -a 0 -x {0.0 1.0 109 ------- null}
+ -t 0.272675983986379 -s 0 -d 1 -p poisson -e 210 -c 0 -i 110 -a 0 -x {0.0 1.0 110 ------- null}
d -t 0.272675983986379 -s 0 -d 1 -p poisson -e 210 -c 0 -i 110 -a 0 -x {0.0 1.0 110 ------- null}
+ -t 0.272675983986379 -s 0 -d 1 -p poisson -e 30 -c 0 -i 111 -a 0 -x {0.0 1.0 111 ------- null}
d -t 0.272675983986379 -s 0 -d 1 -p poisson -e 30 -c 0 -i 111 -a 0 -x {0.0 1.0 111 ------- null}
- -t 0.273453710082491 -s 0 -d 1 -p poisson -e 210 -c 0 -i 37 -a 0 -x {0.0 1.0 37 ------- null}
h -t 0.273453710082491 -s 0 -d 1 -p poisson -e 210 -c 0 -i 37 -a 0 -x {0.0 1.0 -1 ------- null}
r -t 0.276733710082491 -s 0 -d 1 -p poisson -e 210 -c 0 -i 35 -a 0 -x {0.0 1.0 35 ------- null}
- -t 0.280173710082491 -s 0 -d 1 -p poisson -e 210 -c 0 -i 38 -a 0 -x {0.0 1.0 38 ------- null}
h -t 0.280173710082491 -s 0 -d 1 -p poisson -e 210 -c 0 -i 38 -a 0 -x {0.0 1.0 -1 ------- null}
r -t 0.283453710082491 -s 0 -d 1 -p poisson -e 210 -c 0 -i 36 -a 0 -x {0.0 1.0 36 ------- null}
- -t 0.286893710082491 -s 0 -d 1 -p poisson -e 30 -c 0 -i 39 -a 0 -x {0.0 1.0 39 ------- null}
h -t 0.286893710082491 -s 0 -d 1 -p poisson -e 30 -c 0 -i 39 -a 0 -x {0.0 1.0 -1 ------- null}
- -t 0.287853710082491 -s 0 -d 1 -p poisson -e 210 -c 0 -i 40 -a 0 -x {0.0 1.0 40 ------- null}
h -t 0.287853710082491 -s 0 -d 1 -p poisson -e 210 -c 0 -i 40 -a 0 -x {0.0 1.0 -1 ------- null}
r -t 0.290173710082491 -s 0 -d 1 -p poisson -e 210 -c 0 -i 37 -a 0 -x {0.0 1.0 37 ------- null}
- -t 0.294573710082492 -s 0 -d 1 -p poisson -e 210 -c 0 -i 41 -a 0 -x {0.0 1.0 41 ------- null}
h -t 0.294573710082492 -s 0 -d 1 -p poisson -e 210 -c 0 -i 41 -a 0 -x {0.0 1.0 -1 ------- null}
r -t 0.296893710082491 -s 0 -d 1 -p poisson -e 210 -c 0 -i 38 -a 0 -x {0.0 1.0 38 ------- null}
r -t 0.297853710082492 -s 0 -d 1 -p poisson -e 30 -c 0 -i 39 -a 0 -x {0.0 1.0 39 ------- null}
- -t 0.301293710082492 -s 0 -d 1 -p poisson -e 210 -c 0 -i 42 -a 0 -x {0.0 1.0 42 ------- null}
h -t 0.301293710082492 -s 0 -d 1 -p poisson -e 210 -c 0 -i 42 -a 0 -x {0.0 1.0 -1 ------- null}
r -t 0.304573710082492 -s 0 -d 1 -p poisson -e 210 -c 0 -i 40 -a 0 -x {0.0 1.0 40 ------- null}
- -t 0.308013710082492 -s 0 -d 1 -p poisson -e 210 -c 0 -i 43 -a 0 -x {0.0 1.0 43 ------- null}
h -t 0.308013710082492 -s 0 -d 1 -p poisson -e 210 -c 0 -i 43 -a 0 -x {0.0 1.0 -1 ------- null}
+ -t 0.310492116069955 -s 0 -d 1 -p poisson -e 210 -c 0 -i 112 -a 0 -x {0.0 1.0 112 ------- null}
+ -t 0.310492116069955 -s 0 -d 1 -p poisson -e 210 -c 0 -i 113 -a 0 -x {0.0 1.0 113 ------- null}
+ -t 0.310492116069955 -s 0 -d 1 -p poisson -e 210 -c 0 -i 114 -a 0 -x {0.0 1.0 114 ------- null}
+ -t 0.310492116069955 -s 0 -d 1 -p poisson -e 210 -c 0 -i 115 -a 0 -x {0.0 1.0 115 ------- null}
+ -t 0.310492116069955 -s 0 -d 1 -p poisson -e 210 -c 0 -i 116 -a 0 -x {0.0 1.0 116 ------- null}
+ -t 0.310492116069955 -s 0 -d 1 -p poisson -e 210 -c 0 -i 117 -a 0 -x {0.0 1.0 117 ------- null}
+ -t 0.310492116069955 -s 0 -d 1 -p poisson -e 210 -c 0 -i 118 -a 0 -x {0.0 1.0 118 ------- null}
+ -t 0.310492116069955 -s 0 -d 1 -p poisson -e 30 -c 0 -i 119 -a 0 -x {0.0 1.0 119 ------- null}
d -t 0.310492116069955 -s 0 -d 1 -p poisson -e 30 -c 0 -i 119 -a 0 -x {0.0 1.0 119 ------- null}
r -t 0.311293710082492 -s 0 -d 1 -p poisson -e 210 -c 0 -i 41 -a 0 -x {0.0 1.0 41 ------- null}
- -t 0.314733710082492 -s 0 -d 1 -p poisson -e 210 -c 0 -i 44 -a 0 -x {0.0 1.0 44 ------- null}
h -t 0.314733710082492 -s 0 -d 1 -p poisson -e 210 -c 0 -i 44 -a 0 -x {0.0 1.0 -1 ------- null}
+ -t 0.315846292760108 -s 0 -d 1 -p poisson -e 210 -c 0 -i 120 -a 0 -x {0.0 1.0 120 ------- null}
+ -t 0.315846292760108 -s 0 -d 1 -p poisson -e 210 -c 0 -i 121 -a 0 -x {0.0 1.0 121 ------- null}
d -t 0.315846292760108 -s 0 -d 1 -p poisson -e 210 -c 0 -i 121 -a 0 -x {0.0 1.0 121 ------- null}
+ -t 0.315846292760108 -s 0 -d 1 -p poisson -e 210 -c 0 -i 122 -a 0 -x {0.0 1.0 122 ------- null}
d -t 0.315846292760108 -s 0 -d 1 -p poisson -e 210 -c 0 -i 122 -a 0 -x {0.0 1.0 122 ------- null}
+ -t 0.315846292760108 -s 0 -d 1 -p poisson -e 210 -c 0 -i 123 -a 0 -x {0.0 1.0 123 ------- null}
d -t 0.315846292760108 -s 0 -d 1 -p poisson -e 210 -c 0 -i 123 -a 0 -x {0.0 1.0 123 ------- null}
+ -t 0.315846292760108 -s 0 -d 1 -p poisson -e 210 -c 0 -i 124 -a 0 -x {0.0 1.0 124 ------- null}
d -t 0.315846292760108 -s 0 -d 1 -p poisson -e 210 -c 0 -i 124 -a 0 -x {0.0 1.0 124 ------- null}
+ -t 0.315846292760108 -s 0 -d 1 -p poisson -e 210 -c 0 -i 125 -a 0 -x {0.0 1.0 125 ------- null}
d -t 0.315846292760108 -s 0 -d 1 -p poisson -e 210 -c 0 -i 125 -a 0 -x {0.0 1.0 125 ------- null}
+ -t 0.315846292760108 -s 0 -d 1 -p poisson -e 210 -c 0 -i 126 -a 0 -x {0.0 1.0 126 ------- null}
d -t 0.315846292760108 -s 0 -d 1 -p poisson -e 210 -c 0 -i 126 -a 0 -x {0.0 1.0 126 ------- null}
+ -t 0.315846292760108 -s 0 -d 1 -p poisson -e 30 -c 0 -i 127 -a 0 -x {0.0 1.0 127 ------- null}
d -t 0.315846292760108 -s 0 -d 1 -p poisson -e 30 -c 0 -i 127 -a 0 -x {0.0 1.0 127 ------- null}
r -t 0.318013710082492 -s 0 -d 1 -p poisson -e 210 -c 0 -i 42 -a 0 -x {0.0 1.0 42 ------- null}
- -t 0.321453710082492 -s 0 -d 1 -p poisson -e 210 -c 0 -i 45 -a 0 -x {0.0 1.0 45 ------- null}
h -t 0.321453710082492 -s 0 -d 1 -p poisson -e 210 -c 0 -i 45 -a 0 -x {0.0 1.0 -1 ------- null}
r -t 0.324733710082492 -s 0 -d 1 -p poisson -e 210 -c 0 -i 43 -a 0 -x {0.0 1.0 43 ------- null}
- -t 0.328173710082492 -s 0 -d 1 -p poisson -e 210 -c 0 -i 46 -a 0 -x {0.0 1.0 46 ------- null}
h -t 0.328173710082492 -s 0 -d 1 -p poisson -e 210 -c 0 -i 46 -a 0 -x {0.0 1.0 -1 ------- null}
r -t 0.331453710082492 -s 0 -d 1 -p poisson -e 210 -c 0 -i 44 -a 0 -x {0.0 1.0 44 ------- null}
- -t 0.334893710082492 -s 0 -d 1 -p poisson -e 30 -c 0 -i 47 -a 0 -x {0.0 1.0 47 ------- null}
h -t 0.334893710082492 -s 0 -d 1 -p poisson -e 30 -c 0 -i 47 -a 0 -x {0.0 1.0 -1 ------- null}
- -t 0.335853710082492 -s 0 -d 1 -p poisson -e 210 -c 0 -i 48 -a 0 -x {0.0 1.0 48 ------- null}
h -t 0.335853710082492 -s 0 -d 1 -p poisson -e 210 -c 0 -i 48 -a 0 -x {0.0 1.0 -1 ------- null}
r -t 0.338173710082492 -s 0 -d 1 -p poisson -e 210 -c 0 -i 45 -a 0 -x {0.0 1.0 45 ------- null}
+ -t 0.341925176081422 -s 0 -d 1 -p poisson -e 210 -c 0 -i 128 -a 0 -x {0.0 1.0 128 ------- null}
+ -t 0.341925176081422 -s 0 -d 1 -p poisson -e 210 -c 0 -i 129 -a 0 -x {0.0 1.0 129 ------- null}
+ -t 0.341925176081422 -s 0 -d 1 -p poisson -e 210 -c 0 -i 130 -a 0 -x {0.0 1.0 130 ------- null}
+ -t 0.341925176081422 -s 0 -d 1 -p poisson -e 210 -c 0 -i 131 -a 0 -x {0.0 1.0 131 ------- null}
+ -t 0.341925176081422 -s 0 -d 1 -p poisson -e 210 -c 0 -i 132 -a 0 -x {0.0 1.0 132 ------- null}
d -t 0.341925176081422 -s 0 -d 1 -p poisson -e 210 -c 0 -i 132 -a 0 -x {0.0 1.0 132 ------- null}
+ -t 0.341925176081422 -s 0 -d 1 -p poisson -e 210 -c 0 -i 133 -a 0 -x {0.0 1.0 133 ------- null}
d -t 0.341925176081422 -s 0 -d 1 -p poisson -e 210 -c 0 -i 133 -a 0 -x {0.0 1.0 133 ------- null}