+ 0 0 1 poisson 210 ------- 0 0.0 1.0 0 0
- 0 0 1 poisson 210 ------- 0 0.0 1.0 0 0
+ 0 0 1 poisson 210 ------- 0 0.0 1.0 1 1
+ 0 0 1 poisson 210 ------- 0 0.0 1.0 2 2
+ 0 0 1 poisson 210 ------- 0 0.0 1.0 3 3
+ 0 0 1 poisson 210 ------- 0 0.0 1.0 4 4
+ 0 0 1 poisson 210 ------- 0 0.0 1.0 5 5
+ 0 0 1 poisson 210 ------- 0 0.0 1.0 6 6
+ 0 0 1 poisson 30 ------- 0 0.0 1.0 7 7
- 0.00168 0 1 poisson 210 ------- 0 0.0 1.0 1 1
- 0.00336 0 1 poisson 210 ------- 0 0.0 1.0 2 2
- 0.00504 0 1 poisson 210 ------- 0 0.0 1.0 3 3
- 0.00672 0 1 poisson 210 ------- 0 0.0 1.0 4 4
- 0.0084 0 1 poisson 210 ------- 0 0.0 1.0 5 5
- 0.01008 0 1 poisson 210 ------- 0 0.0 1.0 6 6
r 0.01168 0 1 poisson 210 ------- 0 0.0 1.0 0 0
- 0.01176 0 1 poisson 30 ------- 0 0.0 1.0 7 7
r 0.01336 0 1 poisson 210 ------- 0 0.0 1.0 1 1
r 0.01504 0 1 poisson 210 ------- 0 0.0 1.0 2 2
r 0.01672 0 1 poisson 210 ------- 0 0.0 1.0 3 3
r 0.0184 0 1 poisson 210 ------- 0 0.0 1.0 4 4
r 0.02008 0 1 poisson 210 ------- 0 0.0 1.0 5 5
r 0.02176 0 1 poisson 210 ------- 0 0.0 1.0 6 6
r 0.022 0 1 poisson 30 ------- 0 0.0 1.0 7 7
+ 0.031951 0 1 poisson 210 ------- 0 0.0 1.0 8 8
- 0.031951 0 1 poisson 210 ------- 0 0.0 1.0 8 8
+ 0.031951 0 1 poisson 210 ------- 0 0.0 1.0 9 9
+ 0.031951 0 1 poisson 210 ------- 0 0.0 1.0 10 10
+ 0.031951 0 1 poisson 210 ------- 0 0.0 1.0 11 11
+ 0.031951 0 1 poisson 210 ------- 0 0.0 1.0 12 12
+ 0.031951 0 1 poisson 210 ------- 0 0.0 1.0 13 13
+ 0.031951 0 1 poisson 210 ------- 0 0.0 1.0 14 14
+ 0.031951 0 1 poisson 30 ------- 0 0.0 1.0 15 15
- 0.033631 0 1 poisson 210 ------- 0 0.0 1.0 9 9
+ 0.0343 0 1 poisson 210 ------- 0 0.0 1.0 16 16
+ 0.0343 0 1 poisson 210 ------- 0 0.0 1.0 17 17
+ 0.0343 0 1 poisson 210 ------- 0 0.0 1.0 18 18
+ 0.0343 0 1 poisson 210 ------- 0 0.0 1.0 19 19
+ 0.0343 0 1 poisson 210 ------- 0 0.0 1.0 20 20
+ 0.0343 0 1 poisson 210 ------- 0 0.0 1.0 21 21
+ 0.0343 0 1 poisson 210 ------- 0 0.0 1.0 22 22
+ 0.0343 0 1 poisson 30 ------- 0 0.0 1.0 23 23
- 0.035311 0 1 poisson 210 ------- 0 0.0 1.0 10 10
- 0.036991 0 1 poisson 210 ------- 0 0.0 1.0 11 11
- 0.038671 0 1 poisson 210 ------- 0 0.0 1.0 12 12
- 0.040351 0 1 poisson 210 ------- 0 0.0 1.0 13 13
- 0.042031 0 1 poisson 210 ------- 0 0.0 1.0 14 14
r 0.043631 0 1 poisson 210 ------- 0 0.0 1.0 8 8
- 0.043711 0 1 poisson 30 ------- 0 0.0 1.0 15 15
- 0.043951 0 1 poisson 210 ------- 0 0.0 1.0 16 16
r 0.045311 0 1 poisson 210 ------- 0 0.0 1.0 9 9
- 0.045631 0 1 poisson 210 ------- 0 0.0 1.0 17 17
r 0.046991 0 1 poisson 210 ------- 0 0.0 1.0 10 10
- 0.047311 0 1 poisson 210 ------- 0 0.0 1.0 18 18
r 0.048671 0 1 poisson 210 ------- 0 0.0 1.0 11 11
- 0.048991 0 1 poisson 210 ------- 0 0.0 1.0 19 19
r 0.050351 0 1 poisson 210 ------- 0 0.0 1.0 12 12
- 0.050671 0 1 poisson 210 ------- 0 0.0 1.0 20 20
+ 0.051317 0 1 poisson 210 ------- 0 0.0 1.0 24 24
+ 0.051317 0 1 poisson 210 ------- 0 0.0 1.0 25 25
+ 0.051317 0 1 poisson 210 ------- 0 0.0 1.0 26 26
+ 0.051317 0 1 poisson 210 ------- 0 0.0 1.0 27 27
+ 0.051317 0 1 poisson 210 ------- 0 0.0 1.0 28 28
+ 0.051317 0 1 poisson 210 ------- 0 0.0 1.0 29 29
+ 0.051317 0 1 poisson 210 ------- 0 0.0 1.0 30 30
+ 0.051317 0 1 poisson 30 ------- 0 0.0 1.0 31 31
r 0.052031 0 1 poisson 210 ------- 0 0.0 1.0 13 13
- 0.052351 0 1 poisson 210 ------- 0 0.0 1.0 21 21
r 0.053711 0 1 poisson 210 ------- 0 0.0 1.0 14 14
r 0.053951 0 1 poisson 30 ------- 0 0.0 1.0 15 15
- 0.054031 0 1 poisson 210 ------- 0 0.0 1.0 22 22
r 0.055631 0 1 poisson 210 ------- 0 0.0 1.0 16 16
- 0.055711 0 1 poisson 30 ------- 0 0.0 1.0 23 23
- 0.055951 0 1 poisson 210 ------- 0 0.0 1.0 24 24
r 0.057311 0 1 poisson 210 ------- 0 0.0 1.0 17 17
- 0.057631 0 1 poisson 210 ------- 0 0.0 1.0 25 25
r 0.058991 0 1 poisson 210 ------- 0 0.0 1.0 18 18
- 0.059311 0 1 poisson 210 ------- 0 0.0 1.0 26 26
r 0.060671 0 1 poisson 210 ------- 0 0.0 1.0 19 19
- 0.060991 0 1 poisson 210 ------- 0 0.0 1.0 27 27
+ 0.061033 0 1 poisson 210 ------- 0 0.0 1.0 32 32
+ 0.061033 0 1 poisson 210 ------- 0 0.0 1.0 33 33
+ 0.061033 0 1 poisson 210 ------- 0 0.0 1.0 34 34
+ 0.061033 0 1 poisson 210 ------- 0 0.0 1.0 35 35
+ 0.061033 0 1 poisson 210 ------- 0 0.0 1.0 36 36
+ 0.061033 0 1 poisson 210 ------- 0 0.0 1.0 37 37
+ 0.061033 0 1 poisson 210 ------- 0 0.0 1.0 38 38
+ 0.061033 0 1 poisson 30 ------- 0 0.0 1.0 39 39
r 0.062351 0 1 poisson 210 ------- 0 0.0 1.0 20 20
- 0.062671 0 1 poisson 210 ------- 0 0.0 1.0 28 28
r 0.064031 0 1 poisson 210 ------- 0 0.0 1.0 21 21
+ 0.064306 0 1 poisson 210 ------- 0 0.0 1.0 40 40
+ 0.064306 0 1 poisson 210 ------- 0 0.0 1.0 41 41
+ 0.064306 0 1 poisson 210 ------- 0 0.0 1.0 42 42
+ 0.064306 0 1 poisson 210 ------- 0 0.0 1.0 43 43
+ 0.064306 0 1 poisson 210 ------- 0 0.0 1.0 44 44
+ 0.064306 0 1 poisson 210 ------- 0 0.0 1.0 45 45
+ 0.064306 0 1 poisson 210 ------- 0 0.0 1.0 46 46
+ 0.064306 0 1 poisson 30 ------- 0 0.0 1.0 47 47
- 0.064351 0 1 poisson 210 ------- 0 0.0 1.0 29 29
+ 0.065203 0 1 poisson 210 ------- 0 0.0 1.0 48 48
+ 0.065203 0 1 poisson 210 ------- 0 0.0 1.0 49 49
+ 0.065203 0 1 poisson 210 ------- 0 0.0 1.0 50 50
+ 0.065203 0 1 poisson 210 ------- 0 0.0 1.0 51 51
+ 0.065203 0 1 poisson 210 ------- 0 0.0 1.0 52 52
+ 0.065203 0 1 poisson 210 ------- 0 0.0 1.0 53 53
+ 0.065203 0 1 poisson 210 ------- 0 0.0 1.0 54 54
+ 0.065203 0 1 poisson 30 ------- 0 0.0 1.0 55 55
r 0.065711 0 1 poisson 210 ------- 0 0.0 1.0 22 22
r 0.065951 0 1 poisson 30 ------- 0 0.0 1.0 23 23
- 0.066031 0 1 poisson 210 ------- 0 0.0 1.0 30 30
r 0.067631 0 1 poisson 210 ------- 0 0.0 1.0 24 24
- 0.067711 0 1 poisson 30 ------- 0 0.0 1.0 31 31
- 0.067951 0 1 poisson 210 ------- 0 0.0 1.0 32 32
r 0.069311 0 1 poisson 210 ------- 0 0.0 1.0 25 25
- 0.069631 0 1 poisson 210 ------- 0 0.0 1.0 33 33
+ 0.06985 0 1 poisson 210 ------- 0 0.0 1.0 56 56
+ 0.06985 0 1 poisson 210 ------- 0 0.0 1.0 57 57
+ 0.06985 0 1 poisson 210 ------- 0 0.0 1.0 58 58
+ 0.06985 0 1 poisson 210 ------- 0 0.0 1.0 59 59
+ 0.06985 0 1 poisson 210 ------- 0 0.0 1.0 60 60
+ 0.06985 0 1 poisson 210 ------- 0 0.0 1.0 61 61
+ 0.06985 0 1 poisson 210 ------- 0 0.0 1.0 62 62
+ 0.06985 0 1 poisson 30 ------- 0 0.0 1.0 63 63
+ 0.070661 0 1 poisson 210 ------- 0 0.0 1.0 64 64
+ 0.070661 0 1 poisson 210 ------- 0 0.0 1.0 65 65
+ 0.070661 0 1 poisson 210 ------- 0 0.0 1.0 66 66
+ 0.070661 0 1 poisson 210 ------- 0 0.0 1.0 67 67
+ 0.070661 0 1 poisson 210 ------- 0 0.0 1.0 68 68
+ 0.070661 0 1 poisson 210 ------- 0 0.0 1.0 69 69
+ 0.070661 0 1 poisson 210 ------- 0 0.0 1.0 70 70
+ 0.070661 0 1 poisson 30 ------- 0 0.0 1.0 71 71
r 0.070991 0 1 poisson 210 ------- 0 0.0 1.0 26 26
- 0.071311 0 1 poisson 210 ------- 0 0.0 1.0 34 34
r 0.072671 0 1 poisson 210 ------- 0 0.0 1.0 27 27
- 0.072991 0 1 poisson 210 ------- 0 0.0 1.0 35 35
r 0.074351 0 1 poisson 210 ------- 0 0.0 1.0 28 28
- 0.074671 0 1 poisson 210 ------- 0 0.0 1.0 36 36
r 0.076031 0 1 poisson 210 ------- 0 0.0 1.0 29 29
- 0.076351 0 1 poisson 210 ------- 0 0.0 1.0 37 37
+ 0.07646 0 1 poisson 210 ------- 0 0.0 1.0 72 72
+ 0.07646 0 1 poisson 210 ------- 0 0.0 1.0 73 73
+ 0.07646 0 1 poisson 210 ------- 0 0.0 1.0 74 74
+ 0.07646 0 1 poisson 210 ------- 0 0.0 1.0 75 75
+ 0.07646 0 1 poisson 210 ------- 0 0.0 1.0 76 76
+ 0.07646 0 1 poisson 210 ------- 0 0.0 1.0 77 77
+ 0.07646 0 1 poisson 210 ------- 0 0.0 1.0 78 78
+ 0.07646 0 1 poisson 30 ------- 0 0.0 1.0 79 79
r 0.077711 0 1 poisson 210 ------- 0 0.0 1.0 30 30
r 0.077951 0 1 poisson 30 ------- 0 0.0 1.0 31 31
- 0.078031 0 1 poisson 210 ------- 0 0.0 1.0 38 38
+ 0.078252 0 1 poisson 210 ------- 0 0.0 1.0 80 80
+ 0.078252 0 1 poisson 210 ------- 0 0.0 1.0 81 81
+ 0.078252 0 1 poisson 210 ------- 0 0.0 1.0 82 82
+ 0.078252 0 1 poisson 210 ------- 0 0.0 1.0 83 83
+ 0.078252 0 1 poisson 210 ------- 0 0.0 1.0 84 84
+ 0.078252 0 1 poisson 210 ------- 0 0.0 1.0 85 85
+ 0.078252 0 1 poisson 210 ------- 0 0.0 1.0 86 86
+ 0.078252 0 1 poisson 30 ------- 0 0.0 1.0 87 87
r 0.079631 0 1 poisson 210 ------- 0 0.0 1.0 32 32
- 0.079711 0 1 poisson 30 ------- 0 0.0 1.0 39 39
- 0.079951 0 1 poisson 210 ------- 0 0.0 1.0 40 40
r 0.081311 0 1 poisson 210 ------- 0 0.0 1.0 33 33
- 0.081631 0 1 poisson 210 ------- 0 0.0 1.0 41 41
+ 0.082949 0 1 poisson 210 ------- 0 0.0 1.0 88 88
+ 0.082949 0 1 poisson 210 ------- 0 0.0 1.0 89 89
+ 0.082949 0 1 poisson 210 ------- 0 0.0 1.0 90 90
+ 0.082949 0 1 poisson 210 ------- 0 0.0 1.0 91 91
d 0.082949 0 1 poisson 210 ------- 0 0.0 1.0 91 91
+ 0.082949 0 1 poisson 210 ------- 0 0.0 1.0 92 92
d 0.082949 0 1 poisson 210 ------- 0 0.0 1.0 92 92
+ 0.082949 0 1 poisson 210 ------- 0 0.0 1.0 93 93
d 0.082949 0 1 poisson 210 ------- 0 0.0 1.0 93 93
+ 0.082949 0 1 poisson 210 ------- 0 0.0 1.0 94 94
d 0.082949 0 1 poisson 210 ------- 0 0.0 1.0 94 94
+ 0.082949 0 1 poisson 30 ------- 0 0.0 1.0 95 95
d 0.082949 0 1 poisson 30 ------- 0 0.0 1.0 95 95
r 0.082991 0 1 poisson 210 ------- 0 0.0 1.0 34 34
- 0.083311 0 1 poisson 210 ------- 0 0.0 1.0 42 42
+ 0.083664 0 1 poisson 210 ------- 0 0.0 1.0 96 96
+ 0.083664 0 1 poisson 210 ------- 0 0.0 1.0 97 97
d 0.083664 0 1 poisson 210 ------- 0 0.0 1.0 97 97
+ 0.083664 0 1 poisson 210 ------- 0 0.0 1.0 98 98
d 0.083664 0 1 poisson 210 ------- 0 0.0 1.0 98 98
+ 0.083664 0 1 poisson 210 ------- 0 0.0 1.0 99 99
d 0.083664 0 1 poisson 210 ------- 0 0.0 1.0 99 99
+ 0.083664 0 1 poisson 210 ------- 0 0.0 1.0 100 100
d 0.083664 0 1 poisson 210 ------- 0 0.0 1.0 100 100
+ 0.083664 0 1 poisson 210 ------- 0 0.0 1.0 101 101
d 0.083664 0 1 poisson 210 ------- 0 0.0 1.0 101 101
+ 0.083664 0 1 poisson 210 ------- 0 0.0 1.0 102 102
d 0.083664 0 1 poisson 210 ------- 0 0.0 1.0 102 102
+ 0.083664 0 1 poisson 30 ------- 0 0.0 1.0 103 103
d 0.083664 0 1 poisson 30 ------- 0 0.0 1.0 103 103
r 0.084671 0 1 poisson 210 ------- 0 0.0 1.0 35 35
- 0.084991 0 1 poisson 210 ------- 0 0.0 1.0 43 43
r 0.086351 0 1 poisson 210 ------- 0 0.0 1.0 36 36
- 0.086671 0 1 poisson 210 ------- 0 0.0 1.0 44 44
r 0.088031 0 1 poisson 210 ------- 0 0.0 1.0 37 37
- 0.088351 0 1 poisson 210 ------- 0 0.0 1.0 45 45
r 0.089711 0 1 poisson 210 ------- 0 0.0 1.0 38 38
r 0.089951 0 1 poisson 30 ------- 0 0.0 1.0 39 39
- 0.090031 0 1 poisson 210 ------- 0 0.0 1.0 46 46
+ 0.090892 0 1 poisson 210 ------- 0 0.0 1.0 104 104
+ 0.090892 0 1 poisson 210 ------- 0 0.0 1.0 105 105
+ 0.090892 0 1 poisson 210 ------- 0 0.0 1.0 106 106
+ 0.090892 0 1 poisson 210 ------- 0 0.0 1.0 107 107
+ 0.090892 0 1 poisson 210 ------- 0 0.0 1.0 108 108
d 0.090892 0 1 poisson 210 ------- 0 0.0 1.0 108 108
+ 0.090892 0 1 poisson 210 ------- 0 0.0 1.0 109 109
d 0.090892 0 1 poisson 210 ------- 0 0.0 1.0 109 109
+ 0.090892 0 1 poisson 210 ------- 0 0.0 1.0 110 110
d 0.090892 0 1 poisson 210 ------- 0 0.0 1.0 110 110
+ 0.090892 0 1 poisson 30 ------- 0 0.0 1.0 111 111
d 0.090892 0 1 poisson 30 ------- 0 0.0 1.0 111 111
r 0.091631 0 1 poisson 210 ------- 0 0.0 1.0 40 40
- 0.091711 0 1 poisson 30 ------- 0 0.0 1.0 47 47
- 0.091951 0 1 poisson 210 ------- 0 0.0 1.0 48 48
r 0.093311 0 1 poisson 210 ------- 0 0.0 1.0 41 41
- 0.093631 0 1 poisson 210 ------- 0 0.0 1.0 49 49
r 0.094991 0 1 poisson 210 ------- 0 0.0 1.0 42 42
- 0.095311 0 1 poisson 210 ------- 0 0.0 1.0 50 50
r 0.096671 0 1 poisson 210 ------- 0 0.0 1.0 43 43
- 0.096991 0 1 poisson 210 ------- 0 0.0 1.0 51 51
r 0.098351 0 1 poisson 210 ------- 0 0.0 1.0 44 44
- 0.098671 0 1 poisson 210 ------- 0 0.0 1.0 52 52
r 0.100031 0 1 poisson 210 ------- 0 0.0 1.0 45 45
- 0.100351 0 1 poisson 210 ------- 0 0.0 1.0 53 53
r 0.101711 0 1 poisson 210 ------- 0 0.0 1.0 46 46
r 0.101951 0 1 poisson 30 ------- 0 0.0 1.0 47 47
- 0.102031 0 1 poisson 210 ------- 0 0.0 1.0 54 54
+ 0.103497 0 1 poisson 210 ------- 0 0.0 1.0 112 112
+ 0.103497 0 1 poisson 210 ------- 0 0.0 1.0 113 113
+ 0.103497 0 1 poisson 210 ------- 0 0.0 1.0 114 114
+ 0.103497 0 1 poisson 210 ------- 0 0.0 1.0 115 115
+ 0.103497 0 1 poisson 210 ------- 0 0.0 1.0 116 116
+ 0.103497 0 1 poisson 210 ------- 0 0.0 1.0 117 117
+ 0.103497 0 1 poisson 210 ------- 0 0.0 1.0 118 118
+ 0.103497 0 1 poisson 30 ------- 0 0.0 1.0 119 119
r 0.103631 0 1 poisson 210 ------- 0 0.0 1.0 48 48
- 0.103711 0 1 poisson 30 ------- 0 0.0 1.0 55 55
- 0.103951 0 1 poisson 210 ------- 0 0.0 1.0 56 56
+ 0.105282 0 1 poisson 210 ------- 0 0.0 1.0 120 120
+ 0.105282 0 1 poisson 210 ------- 0 0.0 1.0 121 121
+ 0.105282 0 1 poisson 210 ------- 0 0.0 1.0 122 122
d 0.105282 0 1 poisson 210 ------- 0 0.0 1.0 122 122
+ 0.105282 0 1 poisson 210 ------- 0 0.0 1.0 123 123
d 0.105282 0 1 poisson 210 ------- 0 0.0 1.0 123 123
+ 0.105282 0 1 poisson 210 ------- 0 0.0 1.0 124 124
d 0.105282 0 1 poisson 210 ------- 0 0.0 1.0 124 124
+ 0.105282 0 1 poisson 210 ------- 0 0.0 1.0 125 125
d 0.105282 0 1 poisson 210 ------- 0 0.0 1.0 125 125
+ 0.105282 0 1 poisson 210 ------- 0 0.0 1.0 126 126
d 0.105282 0 1 poisson 210 ------- 0 0.0 1.0 126 126
+ 0.105282 0 1 poisson 30 ------- 0 0.0 1.0 127 127
d 0.105282 0 1 poisson 30 ------- 0 0.0 1.0 127 127
r 0.105311 0 1 poisson 210 ------- 0 0.0 1.0 49 49
- 0.105631 0 1 poisson 210 ------- 0 0.0 1.0 57 57
r 0.106991 0 1 poisson 210 ------- 0 0.0 1.0 50 50
- 0.107311 0 1 poisson 210 ------- 0 0.0 1.0 58 58
r 0.108671 0 1 poisson 210 ------- 0 0.0 1.0 51 51
- 0.108991 0 1 poisson 210 ------- 0 0.0 1.0 59 59
r 0.110351 0 1 poisson 210 ------- 0 0.0 1.0 52 52
- 0.110671 0 1 poisson 210 ------- 0 0.0 1.0 60 60
r 0.112031 0 1 poisson 210 ------- 0 0.0 1.0 53 53
- 0.112351 0 1 poisson 210 ------- 0 0.0 1.0 61 61
r 0.113711 0 1 poisson 210 ------- 0 0.0 1.0 54 54
r 0.113951 0 1 poisson 30 ------- 0 0.0 1.0 55 55
+ 0.113975 0 1 poisson 210 ------- 0 0.0 1.0 128 128
+ 0.113975 0 1 poisson 210 ------- 0 0.0 1.0 129 129
+ 0.113975 0 1 poisson 210 ------- 0 0.0 1.0 130 130
+ 0.113975 0 1 poisson 210 ------- 0 0.0 1.0 131 131
+ 0.113975 0 1 poisson 210 ------- 0 0.0 1.0 132 132
+ 0.113975 0 1 poisson 210 ------- 0 0.0 1.0 133 133
d 0.113975 0 1 poisson 210 ------- 0 0.0 1.0 133 133
+ 0.113975 0 1 poisson 210 ------- 0 0.0 1.0 134 134
d 0.113975 0 1 poisson 210 ------- 0 0.0 1.0 134 134
+ 0.113975 0 1 poisson 30 ------- 0 0.0 1.0 135 135
d 0.113975 0 1 poisson 30 ------- 0 0.0 1.0 135 135
- 0.114031 0 1 poisson 210 ------- 0 0.0 1.0 62 62
+ 0.11458 0 1 poisson 210 ------- 0 0.0 1.0 136 136
+ 0.11458 0 1 poisson 210 ------- 0 0.0 1.0 137 137
d 0.11458 0 1 poisson 210 ------- 0 0.0 1.0 137 137
+ 0.11458 0 1 poisson 210 ------- 0 0.0 1.0 138 138
d 0.11458 0 1 poisson 210 ------- 0 0.0 1.0 138 138
+ 0.11458 0 1 poisson 210 ------- 0 0.0 1.0 139 139
d 0.11458 0 1 poisson 210 ------- 0 0.0 1.0 139 139
+ 0.11458 0 1 poisson 210 ------- 0 0.0 1.0 140 140
d 0.11458 0 1 poisson 210 ------- 0 0.0 1.0 140 140
+ 0.11458 0 1 poisson 210 ------- 0 0.0 1.0 141 141
d 0.11458 0 1 poisson 210 ------- 0 0.0 1.0 141 141
+ 0.11458 0 1 poisson 210 ------- 0 0.0 1.0 142 142
d 0.11458 0 1 poisson 210 ------- 0 0.0 1.0 142 142
+ 0.11458 0 1 poisson 30 ------- 0 0.0 1.0 143 143
d 0.11458 0 1 poisson 30 ------- 0 0.0 1.0 143 143
r 0.115631 0 1 poisson 210 ------- 0 0.0 1.0 56 56
- 0.115711 0 1 poisson 30 ------- 0 0.0 1.0 63 63
- 0.115951 0 1 poisson 210 ------- 0 0.0 1.0 64 64
r 0.117311 0 1 poisson 210 ------- 0 0.0 1.0 57 57
- 0.117631 0 1 poisson 210 ------- 0 0.0 1.0 65 65
+ 0.118015 0 1 poisson 210 ------- 0 0.0 1.0 144 144
+ 0.118015 0 1 poisson 210 ------- 0 0.0 1.0 145 145
+ 0.118015 0 1 poisson 210 ------- 0 0.0 1.0 146 146
+ 0.118015 0 1 poisson 210 ------- 0 0.0 1.0 147 147
d 0.118015 0 1 poisson 210 ------- 0 0.0 1.0 147 147
+ 0.118015 0 1 poisson 210 ------- 0 0.0 1.0 148 148
d 0.118015 0 1 poisson 210 ------- 0 0.0 1.0 148 148
+ 0.118015 0 1 poisson 210 ------- 0 0.0 1.0 149 149
d 0.118015 0 1 poisson 210 ------- 0 0.0 1.0 149 149
+ 0.118015 0 1 poisson 210 ------- 0 0.0 1.0 150 150
d 0.118015 0 1 poisson 210 ------- 0 0.0 1.0 150 150
+ 0.118015 0 1 poisson 30 ------- 0 0.0 1.0 151 151
d 0.118015 0 1 poisson 30 ------- 0 0.0 1.0 151 151
r 0.118991 0 1 poisson 210 ------- 0 0.0 1.0 58 58
- 0.119311 0 1 poisson 210 ------- 0 0.0 1.0 66 66
r 0.120671 0 1 poisson 210 ------- 0 0.0 1.0 59 59
- 0.120991 0 1 poisson 210 ------- 0 0.0 1.0 67 67
r 0.122351 0 1 poisson 210 ------- 0 0.0 1.0 60 60
- 0.122671 0 1 poisson 210 ------- 0 0.0 1.0 68 68
r 0.124031 0 1 poisson 210 ------- 0 0.0 1.0 61 61
- 0.124351 0 1 poisson 210 ------- 0 0.0 1.0 69 69
+ 0.124991 0 1 poisson 210 ------- 0 0.0 1.0 152 152
+ 0.124991 0 1 poisson 210 ------- 0 0.0 1.0 153 153
+ 0.124991 0 1 poisson 210 ------- 0 0.0 1.0 154 154
+ 0.124991 0 1 poisson 210 ------- 0 0.0 1.0 155 155
+ 0.124991 0 1 poisson 210 ------- 0 0.0 1.0 156 156
d 0.124991 0 1 poisson 210 ------- 0 0.0 1.0 156 156
+ 0.124991 0 1 poisson 210 ------- 0 0.0 1.0 157 157
d 0.124991 0 1 poisson 210 ------- 0 0.0 1.0 157 157
+ 0.124991 0 1 poisson 210 ------- 0 0.0 1.0 158 158
d 0.124991 0 1 poisson 210 ------- 0 0.0 1.0 158 158
+ 0.124991 0 1 poisson 30 ------- 0 0.0 1.0 159 159
d 0.124991 0 1 poisson 30 ------- 0 0.0 1.0 159 159
r 0.125711 0 1 poisson 210 ------- 0 0.0 1.0 62 62
r 0.125951 0 1 poisson 30 ------- 0 0.0 1.0 63 63
- 0.126031 0 1 poisson 210 ------- 0 0.0 1.0 70 70
r 0.127631 0 1 poisson 210 ------- 0 0.0 1.0 64 64
- 0.127711 0 1 poisson 30 ------- 0 0.0 1.0 71 71
- 0.127951 0 1 poisson 210 ------- 0 0.0 1.0 72 72
r 0.129311 0 1 poisson 210 ------- 0 0.0 1.0 65 65
- 0.129631 0 1 poisson 210 ------- 0 0.0 1.0 73 73
r 0.130991 0 1 poisson 210 ------- 0 0.0 1.0 66 66
- 0.131311 0 1 poisson 210 ------- 0 0.0 1.0 74 74
r 0.132671 0 1 poisson 210 ------- 0 0.0 1.0 67 67
- 0.132991 0 1 poisson 210 ------- 0 0.0 1.0 75 75
r 0.134351 0 1 poisson 210 ------- 0 0.0 1.0 68 68
+ 0.134443 0 1 poisson 210 ------- 0 0.0 1.0 160 160
+ 0.134443 0 1 poisson 210 ------- 0 0.0 1.0 161 161
+ 0.134443 0 1 poisson 210 ------- 0 0.0 1.0 162 162
+ 0.134443 0 1 poisson 210 ------- 0 0.0 1.0 163 163
+ 0.134443 0 1 poisson 210 ------- 0 0.0 1.0 164 164
+ 0.134443 0 1 poisson 210 ------- 0 0.0 1.0 165 165
+ 0.134443 0 1 poisson 210 ------- 0 0.0 1.0 166 166
d 0.134443 0 1 poisson 210 ------- 0 0.0 1.0 166 166
+ 0.134443 0 1 poisson 30 ------- 0 0.0 1.0 167 167
d 0.134443 0 1 poisson 30 ------- 0 0.0 1.0 167 167
- 0.134671 0 1 poisson 210 ------- 0 0.0 1.0 76 76
+ 0.135301 0 1 poisson 210 ------- 0 0.0 1.0 168 168
+ 0.135301 0 1 poisson 210 ------- 0 0.0 1.0 169 169
d 0.135301 0 1 poisson 210 ------- 0 0.0 1.0 169 169
+ 0.135301 0 1 poisson 210 ------- 0 0.0 1.0 170 170
d 0.135301 0 1 poisson 210 ------- 0 0.0 1.0 170 170
+ 0.135301 0 1 poisson 210 ------- 0 0.0 1.0 171 171
d 0.135301 0 1 poisson 210 ------- 0 0.0 1.0 171 171
+ 0.135301 0 1 poisson 210 ------- 0 0.0 1.0 172 172
d 0.135301 0 1 poisson 210 ------- 0 0.0 1.0 172 172
+ 0.135301 0 1 poisson 210 ------- 0 0.0 1.0 173 173
d 0.135301 0 1 poisson 210 ------- 0 0.0 1.0 173 173
+ 0.135301 0 1 poisson 210 ------- 0 0.0 1.0 174 174
d 0.135301 0 1 poisson 210 ------- 0 0.0 1.0 174 174
+ 0.135301 0 1 poisson 30 ------- 0 0.0 1.0 175 175
d 0.135301 0 1 poisson 30 ------- 0 0.0 1.0 175 175
r 0.136031 0 1 poisson 210 ------- 0 0.0 1.0 69 69
- 0.136351 0 1 poisson 210 ------- 0 0.0 1.0 77 77
r 0.137711 0 1 poisson 210 ------- 0 0.0 1.0 70 70
r 0.137951 0 1 poisson 30 ------- 0 0.0 1.0 71 71
- 0.138031 0 1 poisson 210 ------- 0 0.0 1.0 78 78
+ 0.139515 0 1 poisson 210 ------- 0 0.0 1.0 176 176
+ 0.139515 0 1 poisson 210 ------- 0 0.0 1.0 177 177
+ 0.139515 0 1 poisson 210 ------- 0 0.0 1.0 178 178
d 0.139515 0 1 poisson 210 ------- 0 0.0 1.0 178 178
+ 0.139515 0 1 poisson 210 ------- 0 0.0 1.0 179 179
d 0.139515 0 1 poisson 210 ------- 0 0.0 1.0 179 179
+ 0.139515 0 1 poisson 210 ------- 0 0.0 1.0 180 180
d 0.139515 0 1 poisson 210 ------- 0 0.0 1.0 180 180
+ 0.139515 0 1 poisson 210 ------- 0 0.0 1.0 181 181
d 0.139515 0 1 poisson 210 ------- 0 0.0 1.0 181 181
+ 0.139515 0 1 poisson 210 ------- 0 0.0 1.0 182 182
d 0.139515 0 1 poisson 210 ------- 0 0.0 1.0 182 182
+ 0.139515 0 1 poisson 30 ------- 0 0.0 1.0 183 183
d 0.139515 0 1 poisson 30 ------- 0 0.0 1.0 183 183
r 0.139631 0 1 poisson 210 ------- 0 0.0 1.0 72 72
- 0.139711 0 1 poisson 30 ------- 0 0.0 1.0 79 79
- 0.139951 0 1 poisson 210 ------- 0 0.0 1.0 80 80
r 0.141311 0 1 poisson 210 ------- 0 0.0 1.0 73 73
- 0.141631 0 1 poisson 210 ------- 0 0.0 1.0 81 81
r 0.142991 0 1 poisson 210 ------- 0 0.0 1.0 74 74
- 0.143311 0 1 poisson 210 ------- 0 0.0 1.0 82 82
r 0.144671 0 1 poisson 210 ------- 0 0.0 1.0 75 75
+ 0.144932 0 1 poisson 210 ------- 0 0.0 1.0 184 184
+ 0.144932 0 1 poisson 210 ------- 0 0.0 1.0 185 185
+ 0.144932 0 1 poisson 210 ------- 0 0.0 1.0 186 186
+ 0.144932 0 1 poisson 210 ------- 0 0.0 1.0 187 187
+ 0.144932 0 1 poisson 210 ------- 0 0.0 1.0 188 188
d 0.144932 0 1 poisson 210 ------- 0 0.0 1.0 188 188
+ 0.144932 0 1 poisson 210 ------- 0 0.0 1.0 189 189
d 0.144932 0 1 poisson 210 ------- 0 0.0 1.0 189 189
+ 0.144932 0 1 poisson 210 ------- 0 0.0 1.0 190 190
d 0.144932 0 1 poisson 210 ------- 0 0.0 1.0 190 190
+ 0.144932 0 1 poisson 30 ------- 0 0.0 1.0 191 191
d 0.144932 0 1 poisson 30 ------- 0 0.0 1.0 191 191
- 0.144991 0 1 poisson 210 ------- 0 0.0 1.0 83 83
r 0.146351 0 1 poisson 210 ------- 0 0.0 1.0 76 76
- 0.146671 0 1 poisson 210 ------- 0 0.0 1.0 84 84
r 0.148031 0 1 poisson 210 ------- 0 0.0 1.0 77 77
- 0.148351 0 1 poisson 210 ------- 0 0.0 1.0 85 85
+ 0.148512 0 1 poisson 210 ------- 0 0.0 1.0 192 192
+ 0.148512 0 1 poisson 210 ------- 0 0.0 1.0 193 193
+ 0.148512 0 1 poisson 210 ------- 0 0.0 1.0 194 194
+ 0.148512 0 1 poisson 210 ------- 0 0.0 1.0 195 195
d 0.148512 0 1 poisson 210 ------- 0 0.0 1.0 195 195
+ 0.148512 0 1 poisson 210 ------- 0 0.0 1.0 196 196
d 0.148512 0 1 poisson 210 ------- 0 0.0 1.0 196 196
+ 0.148512 0 1 poisson 210 ------- 0 0.0 1.0 197 197
d 0.148512 0 1 poisson 210 ------- 0 0.0 1.0 197 197
+ 0.148512 0 1 poisson 210 ------- 0 0.0 1.0 198 198
d 0.148512 0 1 poisson 210 ------- 0 0.0 1.0 198 198
+ 0.148512 0 1 poisson 30 ------- 0 0.0 1.0 199 199
d 0.148512 0 1 poisson 30 ------- 0 0.0 1.0 199 199
r 0.149711 0 1 poisson 210 ------- 0 0.0 1.0 78 78
r 0.149951 0 1 poisson 30 ------- 0 0.0 1.0 79 79
- 0.150031 0 1 poisson 210 ------- 0 0.0 1.0 86 86
+ 0.151138 0 1 poisson 210 ------- 0 0.0 1.0 200 200
+ 0.151138 0 1 poisson 210 ------- 0 0.0 1.0 201 201
d 0.151138 0 1 poisson 210 ------- 0 0.0 1.0 201 201
+ 0.151138 0 1 poisson 210 ------- 0 0.0 1.0 202 202
d 0.151138 0 1 poisson 210 ------- 0 0.0 1.0 202 202
+ 0.151138 0 1 poisson 210 ------- 0 0.0 1.0 203 203
d 0.151138 0 1 poisson 210 ------- 0 0.0 1.0 203 203
+ 0.151138 0 1 poisson 210 ------- 0 0.0 1.0 204 204
d 0.151138 0 1 poisson 210 ------- 0 0.0 1.0 204 204
+ 0.151138 0 1 poisson 210 ------- 0 0.0 1.0 205 205
d 0.151138 0 1 poisson 210 ------- 0 0.0 1.0 205 205
+ 0.151138 0 1 poisson 210 ------- 0 0.0 1.0 206 206
d 0.151138 0 1 poisson 210 ------- 0 0.0 1.0 206 206
+ 0.151138 0 1 poisson 30 ------- 0 0.0 1.0 207 207
d 0.151138 0 1 poisson 30 ------- 0 0.0 1.0 207 207
r 0.151631 0 1 poisson 210 ------- 0 0.0 1.0 80 80
- 0.151711 0 1 poisson 30 ------- 0 0.0 1.0 87 87
- 0.151951 0 1 poisson 210 ------- 0 0.0 1.0 88 88
r 0.153311 0 1 poisson 210 ------- 0 0.0 1.0 81 81
- 0.153631 0 1 poisson 210 ------- 0 0.0 1.0 89 89
+ 0.154191 0 1 poisson 210 ------- 0 0.0 1.0 208 208
+ 0.154191 0 1 poisson 210 ------- 0 0.0 1.0 209 209
+ 0.154191 0 1 poisson 210 ------- 0 0.0 1.0 210 210
+ 0.154191 0 1 poisson 210 ------- 0 0.0 1.0 211 211
d 0.154191 0 1 poisson 210 ------- 0 0.0 1.0 211 211
+ 0.154191 0 1 poisson 210 ------- 0 0.0 1.0 212 212
d 0.154191 0 1 poisson 210 ------- 0 0.0 1.0 212 212
+ 0.154191 0 1 poisson 210 ------- 0 0.0 1.0 213 213
d 0.154191 0 1 poisson 210 ------- 0 0.0 1.0 213 213
+ 0.154191 0 1 poisson 210 ------- 0 0.0 1.0 214 214
d 0.154191 0 1 poisson 210 ------- 0 0.0 1.0 214 214
+ 0.154191 0 1 poisson 30 ------- 0 0.0 1.0 215 215
d 0.154191 0 1 poisson 30 ------- 0 0.0 1.0 215 215
r 0.154991 0 1 poisson 210 ------- 0 0.0 1.0 82 82
- 0.155311 0 1 poisson 210 ------- 0 0.0 1.0 90 90
+ 0.155662 0 1 poisson 210 ------- 0 0.0 1.0 216 216
+ 0.155662 0 1 poisson 210 ------- 0 0.0 1.0 217 217
d 0.155662 0 1 poisson 210 ------- 0 0.0 1.0 217 217
+ 0.155662 0 1 poisson 210 ------- 0 0.0 1.0 218 218
d 0.155662 0 1 poisson 210 ------- 0 0.0 1.0 218 218
+ 0.155662 0 1 poisson 210 ------- 0 0.0 1.0 219 219
d 0.155662 0 1 poisson 210 ------- 0 0.0 1.0 219 219
+ 0.155662 0 1 poisson 210 ------- 0 0.0 1.0 220 220
d 0.155662 0 1 poisson 210 ------- 0 0.0 1.0 220 220
+ 0.155662 0 1 poisson 210 ------- 0 0.0 1.0 221 221
d 0.155662 0 1 poisson 210 ------- 0 0.0 1.0 221 221
+ 0.155662 0 1 poisson 210 ------- 0 0.0 1.0 222 222
d 0.155662 0 1 poisson 210 ------- 0 0.0 1.0 222 222
+ 0.155662 0 1 poisson 30 ------- 0 0.0 1.0 223 223
d 0.155662 0 1 poisson 30 ------- 0 0.0 1.0 223 223
+ 0.156256 0 1 poisson 210 ------- 0 0.0 1.0 224 224
d 0.156256 0 1 poisson 210 ------- 0 0.0 1.0 224 224
+ 0.156256 0 1 poisson 210 ------- 0 0.0 1.0 225 225
d 0.156256 0 1 poisson 210 ------- 0 0.0 1.0 225 225
+ 0.156256 0 1 poisson 210 ------- 0 0.0 1.0 226 226
d 0.156256 0 1 poisson 210 ------- 0 0.0 1.0 226 226
+ 0.156256 0 1 poisson 210 ------- 0 0.0 1.0 227 227
d 0.156256 0 1 poisson 210 ------- 0 0.0 1.0 227 227
+ 0.156256 0 1 poisson 210 ------- 0 0.0 1.0 228 228
d 0.156256 0 1 poisson 210 ------- 0 0.0 1.0 228 228
+ 0.156256 0 1 poisson 210 ------- 0 0.0 1.0 229 229
d 0.156256 0 1 poisson 210 ------- 0 0.0 1.0 229 229
+ 0.156256 0 1 poisson 210 ------- 0 0.0 1.0 230 230
d 0.156256 0 1 poisson 210 ------- 0 0.0 1.0 230 230
+ 0.156256 0 1 poisson 30 ------- 0 0.0 1.0 231 231
d 0.156256 0 1 poisson 30 ------- 0 0.0 1.0 231 231
r 0.156671 0 1 poisson 210 ------- 0 0.0 1.0 83 83
+ 0.156954 0 1 poisson 210 ------- 0 0.0 1.0 232 232
d 0.156954 0 1 poisson 210 ------- 0 0.0 1.0 232 232
+ 0.156954 0 1 poisson 210 ------- 0 0.0 1.0 233 233
d 0.156954 0 1 poisson 210 ------- 0 0.0 1.0 233 233
+ 0.156954 0 1 poisson 210 ------- 0 0.0 1.0 234 234
d 0.156954 0 1 poisson 210 ------- 0 0.0 1.0 234 234
+ 0.156954 0 1 poisson 210 ------- 0 0.0 1.0 235 235
d 0.156954 0 1 poisson 210 ------- 0 0.0 1.0 235 235
+ 0.156954 0 1 poisson 210 ------- 0 0.0 1.0 236 236
d 0.156954 0 1 poisson 210 ------- 0 0.0 1.0 236 236
+ 0.156954 0 1 poisson 210 ------- 0 0.0 1.0 237 237
d 0.156954 0 1 poisson 210 ------- 0 0.0 1.0 237 237
+ 0.156954 0 1 poisson 210 ------- 0 0.0 1.0 238 238
d 0.156954 0 1 poisson 210 ------- 0 0.0 1.0 238 238
+ 0.156954 0 1 poisson 30 ------- 0 0.0 1.0 239 239
d 0.156954 0 1 poisson 30 ------- 0 0.0 1.0 239 239
- 0.156991 0 1 poisson 210 ------- 0 0.0 1.0 96 96
r 0.158351 0 1 poisson 210 ------- 0 0.0 1.0 84 84
- 0.158671 0 1 poisson 210 ------- 0 0.0 1.0 104 104
r 0.160031 0 1 poisson 210 ------- 0 0.0 1.0 85 85
- 0.160351 0 1 poisson 210 ------- 0 0.0 1.0 105 105
r 0.161711 0 1 poisson 210 ------- 0 0.0 1.0 86 86
r 0.161951 0 1 poisson 30 ------- 0 0.0 1.0 87 87
- 0.162031 0 1 poisson 210 ------- 0 0.0 1.0 106 106
+ 0.163062 0 1 poisson 210 ------- 0 0.0 1.0 240 240
+ 0.163062 0 1 poisson 210 ------- 0 0.0 1.0 241 241
+ 0.163062 0 1 poisson 210 ------- 0 0.0 1.0 242 242
+ 0.163062 0 1 poisson 210 ------- 0 0.0 1.0 243 243
+ 0.163062 0 1 poisson 210 ------- 0 0.0 1.0 244 244
d 0.163062 0 1 poisson 210 ------- 0 0.0 1.0 244 244
+ 0.163062 0 1 poisson 210 ------- 0 0.0 1.0 245 245
d 0.163062 0 1 poisson 210 ------- 0 0.0 1.0 245 245
+ 0.163062 0 1 poisson 210 ------- 0 0.0 1.0 246 246
d 0.163062 0 1 poisson 210 ------- 0 0.0 1.0 246 246
+ 0.163062 0 1 poisson 30 ------- 0 0.0 1.0 247 247
d 0.163062 0 1 poisson 30 ------- 0 0.0 1.0 247 247
r 0.163631 0 1 poisson 210 ------- 0 0.0 1.0 88 88
- 0.163711 0 1 poisson 210 ------- 0 0.0 1.0 107 107
r 0.165311 0 1 poisson 210 ------- 0 0.0 1.0 89 89
- 0.165391 0 1 poisson 210 ------- 0 0.0 1.0 112 112
r 0.166991 0 1 poisson 210 ------- 0 0.0 1.0 90 90
- 0.167071 0 1 poisson 210 ------- 0 0.0 1.0 113 113
r 0.168671 0 1 poisson 210 ------- 0 0.0 1.0 96 96
+ 0.16875 0 1 poisson 210 ------- 0 0.0 1.0 248 248
+ 0.16875 0 1 poisson 210 ------- 0 0.0 1.0 249 249
+ 0.16875 0 1 poisson 210 ------- 0 0.0 1.0 250 250
+ 0.16875 0 1 poisson 210 ------- 0 0.0 1.0 251 251
d 0.16875 0 1 poisson 210 ------- 0 0.0 1.0 251 251
+ 0.16875 0 1 poisson 210 ------- 0 0.0 1.0 252 252
d 0.16875 0 1 poisson 210 ------- 0 0.0 1.0 252 252
+ 0.16875 0 1 poisson 210 ------- 0 0.0 1.0 253 253
d 0.16875 0 1 poisson 210 ------- 0 0.0 1.0 253 253
+ 0.16875 0 1 poisson 210 ------- 0 0.0 1.0 254 254
d 0.16875 0 1 poisson 210 ------- 0 0.0 1.0 254 254
+ 0.16875 0 1 poisson 30 ------- 0 0.0 1.0 255 255
d 0.16875 0 1 poisson 30 ------- 0 0.0 1.0 255 255
- 0.168751 0 1 poisson 210 ------- 0 0.0 1.0 114 114
+ 0.169395 0 1 poisson 210 ------- 0 0.0 1.0 256 256
+ 0.169395 0 1 poisson 210 ------- 0 0.0 1.0 257 257
d 0.169395 0 1 poisson 210 ------- 0 0.0 1.0 257 257
+ 0.169395 0 1 poisson 210 ------- 0 0.0 1.0 258 258
d 0.169395 0 1 poisson 210 ------- 0 0.0 1.0 258 258
+ 0.169395 0 1 poisson 210 ------- 0 0.0 1.0 259 259
d 0.169395 0 1 poisson 210 ------- 0 0.0 1.0 259 259
+ 0.169395 0 1 poisson 210 ------- 0 0.0 1.0 260 260
d 0.169395 0 1 poisson 210 ------- 0 0.0 1.0 260 260
+ 0.169395 0 1 poisson 210 ------- 0 0.0 1.0 261 261
d 0.169395 0 1 poisson 210 ------- 0 0.0 1.0 261 261
+ 0.169395 0 1 poisson 210 ------- 0 0.0 1.0 262 262
d 0.169395 0 1 poisson 210 ------- 0 0.0 1.0 262 262
+ 0.169395 0 1 poisson 30 ------- 0 0.0 1.0 263 263
d 0.169395 0 1 poisson 30 ------- 0 0.0 1.0 263 263
r 0.170351 0 1 poisson 210 ------- 0 0.0 1.0 104 104
- 0.170431 0 1 poisson 210 ------- 0 0.0 1.0 115 115
+ 0.170954 0 1 poisson 210 ------- 0 0.0 1.0 264 264
+ 0.170954 0 1 poisson 210 ------- 0 0.0 1.0 265 265
d 0.170954 0 1 poisson 210 ------- 0 0.0 1.0 265 265
+ 0.170954 0 1 poisson 210 ------- 0 0.0 1.0 266 266
d 0.170954 0 1 poisson 210 ------- 0 0.0 1.0 266 266
+ 0.170954 0 1 poisson 210 ------- 0 0.0 1.0 267 267
d 0.170954 0 1 poisson 210 ------- 0 0.0 1.0 267 267
+ 0.170954 0 1 poisson 210 ------- 0 0.0 1.0 268 268
d 0.170954 0 1 poisson 210 ------- 0 0.0 1.0 268 268