+ 0 0 1 poisson 210 ------- 0 0.0 1.0 0 0
- 0 0 1 poisson 210 ------- 0 0.0 1.0 0 0
+ 0 0 1 poisson 210 ------- 0 0.0 1.0 1 1
+ 0 0 1 poisson 210 ------- 0 0.0 1.0 2 2
+ 0 0 1 poisson 210 ------- 0 0.0 1.0 3 3
+ 0 0 1 poisson 210 ------- 0 0.0 1.0 4 4
+ 0 0 1 poisson 210 ------- 0 0.0 1.0 5 5
+ 0 0 1 poisson 210 ------- 0 0.0 1.0 6 6
+ 0 0 1 poisson 30 ------- 0 0.0 1.0 7 7
- 0.00672 0 1 poisson 210 ------- 0 0.0 1.0 1 1
- 0.01344 0 1 poisson 210 ------- 0 0.0 1.0 2 2
r 0.01672 0 1 poisson 210 ------- 0 0.0 1.0 0 0
- 0.02016 0 1 poisson 210 ------- 0 0.0 1.0 3 3
r 0.02344 0 1 poisson 210 ------- 0 0.0 1.0 1 1
- 0.02688 0 1 poisson 210 ------- 0 0.0 1.0 4 4
r 0.03016 0 1 poisson 210 ------- 0 0.0 1.0 2 2
- 0.0336 0 1 poisson 210 ------- 0 0.0 1.0 5 5
r 0.03688 0 1 poisson 210 ------- 0 0.0 1.0 3 3
- 0.04032 0 1 poisson 210 ------- 0 0.0 1.0 6 6
r 0.0436 0 1 poisson 210 ------- 0 0.0 1.0 4 4
- 0.04704 0 1 poisson 30 ------- 0 0.0 1.0 7 7
r 0.05032 0 1 poisson 210 ------- 0 0.0 1.0 5 5
r 0.05704 0 1 poisson 210 ------- 0 0.0 1.0 6 6
r 0.058 0 1 poisson 30 ------- 0 0.0 1.0 7 7
+ 0.095854 0 1 poisson 210 ------- 0 0.0 1.0 8 8
- 0.095854 0 1 poisson 210 ------- 0 0.0 1.0 8 8
+ 0.095854 0 1 poisson 210 ------- 0 0.0 1.0 9 9
+ 0.095854 0 1 poisson 210 ------- 0 0.0 1.0 10 10
+ 0.095854 0 1 poisson 210 ------- 0 0.0 1.0 11 11
+ 0.095854 0 1 poisson 210 ------- 0 0.0 1.0 12 12
+ 0.095854 0 1 poisson 210 ------- 0 0.0 1.0 13 13
+ 0.095854 0 1 poisson 210 ------- 0 0.0 1.0 14 14
+ 0.095854 0 1 poisson 30 ------- 0 0.0 1.0 15 15
- 0.102574 0 1 poisson 210 ------- 0 0.0 1.0 9 9
+ 0.1029 0 1 poisson 210 ------- 0 0.0 1.0 16 16
+ 0.1029 0 1 poisson 210 ------- 0 0.0 1.0 17 17
+ 0.1029 0 1 poisson 210 ------- 0 0.0 1.0 18 18
+ 0.1029 0 1 poisson 210 ------- 0 0.0 1.0 19 19
+ 0.1029 0 1 poisson 210 ------- 0 0.0 1.0 20 20
+ 0.1029 0 1 poisson 210 ------- 0 0.0 1.0 21 21
+ 0.1029 0 1 poisson 210 ------- 0 0.0 1.0 22 22
+ 0.1029 0 1 poisson 30 ------- 0 0.0 1.0 23 23
- 0.109294 0 1 poisson 210 ------- 0 0.0 1.0 10 10
r 0.112574 0 1 poisson 210 ------- 0 0.0 1.0 8 8
- 0.116014 0 1 poisson 210 ------- 0 0.0 1.0 11 11
r 0.119294 0 1 poisson 210 ------- 0 0.0 1.0 9 9
- 0.122734 0 1 poisson 210 ------- 0 0.0 1.0 12 12
r 0.126014 0 1 poisson 210 ------- 0 0.0 1.0 10 10
- 0.129454 0 1 poisson 210 ------- 0 0.0 1.0 13 13
r 0.132734 0 1 poisson 210 ------- 0 0.0 1.0 11 11
- 0.136174 0 1 poisson 210 ------- 0 0.0 1.0 14 14
r 0.139454 0 1 poisson 210 ------- 0 0.0 1.0 12 12
- 0.142894 0 1 poisson 30 ------- 0 0.0 1.0 15 15
- 0.143854 0 1 poisson 210 ------- 0 0.0 1.0 16 16
r 0.146174 0 1 poisson 210 ------- 0 0.0 1.0 13 13
- 0.150574 0 1 poisson 210 ------- 0 0.0 1.0 17 17
r 0.152894 0 1 poisson 210 ------- 0 0.0 1.0 14 14
r 0.153854 0 1 poisson 30 ------- 0 0.0 1.0 15 15
+ 0.15395 0 1 poisson 210 ------- 0 0.0 1.0 24 24
+ 0.15395 0 1 poisson 210 ------- 0 0.0 1.0 25 25
+ 0.15395 0 1 poisson 210 ------- 0 0.0 1.0 26 26
+ 0.15395 0 1 poisson 210 ------- 0 0.0 1.0 27 27
+ 0.15395 0 1 poisson 210 ------- 0 0.0 1.0 28 28
+ 0.15395 0 1 poisson 210 ------- 0 0.0 1.0 29 29
+ 0.15395 0 1 poisson 210 ------- 0 0.0 1.0 30 30
+ 0.15395 0 1 poisson 30 ------- 0 0.0 1.0 31 31
- 0.157294 0 1 poisson 210 ------- 0 0.0 1.0 18 18
r 0.160574 0 1 poisson 210 ------- 0 0.0 1.0 16 16
- 0.164014 0 1 poisson 210 ------- 0 0.0 1.0 19 19
r 0.167294 0 1 poisson 210 ------- 0 0.0 1.0 17 17
- 0.170734 0 1 poisson 210 ------- 0 0.0 1.0 20 20
r 0.174014 0 1 poisson 210 ------- 0 0.0 1.0 18 18
- 0.177454 0 1 poisson 210 ------- 0 0.0 1.0 21 21
r 0.180734 0 1 poisson 210 ------- 0 0.0 1.0 19 19
+ 0.183099 0 1 poisson 210 ------- 0 0.0 1.0 32 32
+ 0.183099 0 1 poisson 210 ------- 0 0.0 1.0 33 33
+ 0.183099 0 1 poisson 210 ------- 0 0.0 1.0 34 34
+ 0.183099 0 1 poisson 210 ------- 0 0.0 1.0 35 35
+ 0.183099 0 1 poisson 210 ------- 0 0.0 1.0 36 36
+ 0.183099 0 1 poisson 210 ------- 0 0.0 1.0 37 37
+ 0.183099 0 1 poisson 210 ------- 0 0.0 1.0 38 38
+ 0.183099 0 1 poisson 30 ------- 0 0.0 1.0 39 39
- 0.184174 0 1 poisson 210 ------- 0 0.0 1.0 22 22
r 0.187454 0 1 poisson 210 ------- 0 0.0 1.0 20 20
- 0.190894 0 1 poisson 30 ------- 0 0.0 1.0 23 23
- 0.191854 0 1 poisson 210 ------- 0 0.0 1.0 24 24
+ 0.192918 0 1 poisson 210 ------- 0 0.0 1.0 40 40
+ 0.192918 0 1 poisson 210 ------- 0 0.0 1.0 41 41
+ 0.192918 0 1 poisson 210 ------- 0 0.0 1.0 42 42
+ 0.192918 0 1 poisson 210 ------- 0 0.0 1.0 43 43
+ 0.192918 0 1 poisson 210 ------- 0 0.0 1.0 44 44
+ 0.192918 0 1 poisson 210 ------- 0 0.0 1.0 45 45
+ 0.192918 0 1 poisson 210 ------- 0 0.0 1.0 46 46
+ 0.192918 0 1 poisson 30 ------- 0 0.0 1.0 47 47
r 0.194174 0 1 poisson 210 ------- 0 0.0 1.0 21 21
+ 0.195609 0 1 poisson 210 ------- 0 0.0 1.0 48 48
+ 0.195609 0 1 poisson 210 ------- 0 0.0 1.0 49 49
+ 0.195609 0 1 poisson 210 ------- 0 0.0 1.0 50 50
+ 0.195609 0 1 poisson 210 ------- 0 0.0 1.0 51 51
+ 0.195609 0 1 poisson 210 ------- 0 0.0 1.0 52 52
+ 0.195609 0 1 poisson 210 ------- 0 0.0 1.0 53 53
+ 0.195609 0 1 poisson 210 ------- 0 0.0 1.0 54 54
+ 0.195609 0 1 poisson 30 ------- 0 0.0 1.0 55 55
- 0.198574 0 1 poisson 210 ------- 0 0.0 1.0 25 25
r 0.200894 0 1 poisson 210 ------- 0 0.0 1.0 22 22
r 0.201854 0 1 poisson 30 ------- 0 0.0 1.0 23 23
- 0.205294 0 1 poisson 210 ------- 0 0.0 1.0 26 26
r 0.208574 0 1 poisson 210 ------- 0 0.0 1.0 24 24
+ 0.209549 0 1 poisson 210 ------- 0 0.0 1.0 56 56
+ 0.209549 0 1 poisson 210 ------- 0 0.0 1.0 57 57
+ 0.209549 0 1 poisson 210 ------- 0 0.0 1.0 58 58
+ 0.209549 0 1 poisson 210 ------- 0 0.0 1.0 59 59
+ 0.209549 0 1 poisson 210 ------- 0 0.0 1.0 60 60
+ 0.209549 0 1 poisson 210 ------- 0 0.0 1.0 61 61
+ 0.209549 0 1 poisson 210 ------- 0 0.0 1.0 62 62
+ 0.209549 0 1 poisson 30 ------- 0 0.0 1.0 63 63
+ 0.211982 0 1 poisson 210 ------- 0 0.0 1.0 64 64
+ 0.211982 0 1 poisson 210 ------- 0 0.0 1.0 65 65
+ 0.211982 0 1 poisson 210 ------- 0 0.0 1.0 66 66
+ 0.211982 0 1 poisson 210 ------- 0 0.0 1.0 67 67
+ 0.211982 0 1 poisson 210 ------- 0 0.0 1.0 68 68
+ 0.211982 0 1 poisson 210 ------- 0 0.0 1.0 69 69
+ 0.211982 0 1 poisson 210 ------- 0 0.0 1.0 70 70
+ 0.211982 0 1 poisson 30 ------- 0 0.0 1.0 71 71
- 0.212014 0 1 poisson 210 ------- 0 0.0 1.0 27 27
r 0.215294 0 1 poisson 210 ------- 0 0.0 1.0 25 25
- 0.218734 0 1 poisson 210 ------- 0 0.0 1.0 28 28
r 0.222014 0 1 poisson 210 ------- 0 0.0 1.0 26 26
- 0.225454 0 1 poisson 210 ------- 0 0.0 1.0 29 29
r 0.228734 0 1 poisson 210 ------- 0 0.0 1.0 27 27
+ 0.22938 0 1 poisson 210 ------- 0 0.0 1.0 72 72
+ 0.22938 0 1 poisson 210 ------- 0 0.0 1.0 73 73
+ 0.22938 0 1 poisson 210 ------- 0 0.0 1.0 74 74
+ 0.22938 0 1 poisson 210 ------- 0 0.0 1.0 75 75
+ 0.22938 0 1 poisson 210 ------- 0 0.0 1.0 76 76
+ 0.22938 0 1 poisson 210 ------- 0 0.0 1.0 77 77
+ 0.22938 0 1 poisson 210 ------- 0 0.0 1.0 78 78
+ 0.22938 0 1 poisson 30 ------- 0 0.0 1.0 79 79
d 0.22938 0 1 poisson 30 ------- 0 0.0 1.0 79 79
- 0.232174 0 1 poisson 210 ------- 0 0.0 1.0 30 30
+ 0.234757 0 1 poisson 210 ------- 0 0.0 1.0 80 80
+ 0.234757 0 1 poisson 210 ------- 0 0.0 1.0 81 81
d 0.234757 0 1 poisson 210 ------- 0 0.0 1.0 81 81
+ 0.234757 0 1 poisson 210 ------- 0 0.0 1.0 82 82
d 0.234757 0 1 poisson 210 ------- 0 0.0 1.0 82 82
+ 0.234757 0 1 poisson 210 ------- 0 0.0 1.0 83 83
d 0.234757 0 1 poisson 210 ------- 0 0.0 1.0 83 83
+ 0.234757 0 1 poisson 210 ------- 0 0.0 1.0 84 84
d 0.234757 0 1 poisson 210 ------- 0 0.0 1.0 84 84
+ 0.234757 0 1 poisson 210 ------- 0 0.0 1.0 85 85
d 0.234757 0 1 poisson 210 ------- 0 0.0 1.0 85 85
+ 0.234757 0 1 poisson 210 ------- 0 0.0 1.0 86 86
d 0.234757 0 1 poisson 210 ------- 0 0.0 1.0 86 86
+ 0.234757 0 1 poisson 30 ------- 0 0.0 1.0 87 87
d 0.234757 0 1 poisson 30 ------- 0 0.0 1.0 87 87
r 0.235454 0 1 poisson 210 ------- 0 0.0 1.0 28 28
- 0.238894 0 1 poisson 30 ------- 0 0.0 1.0 31 31
- 0.239854 0 1 poisson 210 ------- 0 0.0 1.0 32 32
r 0.242174 0 1 poisson 210 ------- 0 0.0 1.0 29 29
- 0.246574 0 1 poisson 210 ------- 0 0.0 1.0 33 33
+ 0.248847 0 1 poisson 210 ------- 0 0.0 1.0 88 88
+ 0.248847 0 1 poisson 210 ------- 0 0.0 1.0 89 89
+ 0.248847 0 1 poisson 210 ------- 0 0.0 1.0 90 90
+ 0.248847 0 1 poisson 210 ------- 0 0.0 1.0 91 91
d 0.248847 0 1 poisson 210 ------- 0 0.0 1.0 91 91
+ 0.248847 0 1 poisson 210 ------- 0 0.0 1.0 92 92
d 0.248847 0 1 poisson 210 ------- 0 0.0 1.0 92 92
+ 0.248847 0 1 poisson 210 ------- 0 0.0 1.0 93 93
d 0.248847 0 1 poisson 210 ------- 0 0.0 1.0 93 93
+ 0.248847 0 1 poisson 210 ------- 0 0.0 1.0 94 94
d 0.248847 0 1 poisson 210 ------- 0 0.0 1.0 94 94
+ 0.248847 0 1 poisson 30 ------- 0 0.0 1.0 95 95
d 0.248847 0 1 poisson 30 ------- 0 0.0 1.0 95 95
r 0.248894 0 1 poisson 210 ------- 0 0.0 1.0 30 30
r 0.249854 0 1 poisson 30 ------- 0 0.0 1.0 31 31
+ 0.250992 0 1 poisson 210 ------- 0 0.0 1.0 96 96
d 0.250992 0 1 poisson 210 ------- 0 0.0 1.0 96 96
+ 0.250992 0 1 poisson 210 ------- 0 0.0 1.0 97 97
d 0.250992 0 1 poisson 210 ------- 0 0.0 1.0 97 97
+ 0.250992 0 1 poisson 210 ------- 0 0.0 1.0 98 98
d 0.250992 0 1 poisson 210 ------- 0 0.0 1.0 98 98
+ 0.250992 0 1 poisson 210 ------- 0 0.0 1.0 99 99
d 0.250992 0 1 poisson 210 ------- 0 0.0 1.0 99 99
+ 0.250992 0 1 poisson 210 ------- 0 0.0 1.0 100 100
d 0.250992 0 1 poisson 210 ------- 0 0.0 1.0 100 100
+ 0.250992 0 1 poisson 210 ------- 0 0.0 1.0 101 101
d 0.250992 0 1 poisson 210 ------- 0 0.0 1.0 101 101
+ 0.250992 0 1 poisson 210 ------- 0 0.0 1.0 102 102
d 0.250992 0 1 poisson 210 ------- 0 0.0 1.0 102 102
+ 0.250992 0 1 poisson 30 ------- 0 0.0 1.0 103 103
d 0.250992 0 1 poisson 30 ------- 0 0.0 1.0 103 103
- 0.253294 0 1 poisson 210 ------- 0 0.0 1.0 34 34
r 0.256574 0 1 poisson 210 ------- 0 0.0 1.0 32 32
- 0.260014 0 1 poisson 210 ------- 0 0.0 1.0 35 35
r 0.263294 0 1 poisson 210 ------- 0 0.0 1.0 33 33
- 0.266734 0 1 poisson 210 ------- 0 0.0 1.0 36 36
r 0.270014 0 1 poisson 210 ------- 0 0.0 1.0 34 34
+ 0.272676 0 1 poisson 210 ------- 0 0.0 1.0 104 104
+ 0.272676 0 1 poisson 210 ------- 0 0.0 1.0 105 105
+ 0.272676 0 1 poisson 210 ------- 0 0.0 1.0 106 106
+ 0.272676 0 1 poisson 210 ------- 0 0.0 1.0 107 107
d 0.272676 0 1 poisson 210 ------- 0 0.0 1.0 107 107
+ 0.272676 0 1 poisson 210 ------- 0 0.0 1.0 108 108
d 0.272676 0 1 poisson 210 ------- 0 0.0 1.0 108 108
+ 0.272676 0 1 poisson 210 ------- 0 0.0 1.0 109 109
d 0.272676 0 1 poisson 210 ------- 0 0.0 1.0 109 109
+ 0.272676 0 1 poisson 210 ------- 0 0.0 1.0 110 110
d 0.272676 0 1 poisson 210 ------- 0 0.0 1.0 110 110
+ 0.272676 0 1 poisson 30 ------- 0 0.0 1.0 111 111
d 0.272676 0 1 poisson 30 ------- 0 0.0 1.0 111 111
- 0.273454 0 1 poisson 210 ------- 0 0.0 1.0 37 37
r 0.276734 0 1 poisson 210 ------- 0 0.0 1.0 35 35
- 0.280174 0 1 poisson 210 ------- 0 0.0 1.0 38 38
r 0.283454 0 1 poisson 210 ------- 0 0.0 1.0 36 36
- 0.286894 0 1 poisson 30 ------- 0 0.0 1.0 39 39
- 0.287854 0 1 poisson 210 ------- 0 0.0 1.0 40 40
r 0.290174 0 1 poisson 210 ------- 0 0.0 1.0 37 37
- 0.294574 0 1 poisson 210 ------- 0 0.0 1.0 41 41
r 0.296894 0 1 poisson 210 ------- 0 0.0 1.0 38 38
r 0.297854 0 1 poisson 30 ------- 0 0.0 1.0 39 39
- 0.301294 0 1 poisson 210 ------- 0 0.0 1.0 42 42
r 0.304574 0 1 poisson 210 ------- 0 0.0 1.0 40 40
- 0.308014 0 1 poisson 210 ------- 0 0.0 1.0 43 43
+ 0.310492 0 1 poisson 210 ------- 0 0.0 1.0 112 112
+ 0.310492 0 1 poisson 210 ------- 0 0.0 1.0 113 113
+ 0.310492 0 1 poisson 210 ------- 0 0.0 1.0 114 114
+ 0.310492 0 1 poisson 210 ------- 0 0.0 1.0 115 115
+ 0.310492 0 1 poisson 210 ------- 0 0.0 1.0 116 116
+ 0.310492 0 1 poisson 210 ------- 0 0.0 1.0 117 117
+ 0.310492 0 1 poisson 210 ------- 0 0.0 1.0 118 118
+ 0.310492 0 1 poisson 30 ------- 0 0.0 1.0 119 119
d 0.310492 0 1 poisson 30 ------- 0 0.0 1.0 119 119
r 0.311294 0 1 poisson 210 ------- 0 0.0 1.0 41 41
- 0.314734 0 1 poisson 210 ------- 0 0.0 1.0 44 44
+ 0.315846 0 1 poisson 210 ------- 0 0.0 1.0 120 120
+ 0.315846 0 1 poisson 210 ------- 0 0.0 1.0 121 121
d 0.315846 0 1 poisson 210 ------- 0 0.0 1.0 121 121
+ 0.315846 0 1 poisson 210 ------- 0 0.0 1.0 122 122
d 0.315846 0 1 poisson 210 ------- 0 0.0 1.0 122 122
+ 0.315846 0 1 poisson 210 ------- 0 0.0 1.0 123 123
d 0.315846 0 1 poisson 210 ------- 0 0.0 1.0 123 123
+ 0.315846 0 1 poisson 210 ------- 0 0.0 1.0 124 124
d 0.315846 0 1 poisson 210 ------- 0 0.0 1.0 124 124
+ 0.315846 0 1 poisson 210 ------- 0 0.0 1.0 125 125
d 0.315846 0 1 poisson 210 ------- 0 0.0 1.0 125 125
+ 0.315846 0 1 poisson 210 ------- 0 0.0 1.0 126 126
d 0.315846 0 1 poisson 210 ------- 0 0.0 1.0 126 126
+ 0.315846 0 1 poisson 30 ------- 0 0.0 1.0 127 127
d 0.315846 0 1 poisson 30 ------- 0 0.0 1.0 127 127
r 0.318014 0 1 poisson 210 ------- 0 0.0 1.0 42 42
- 0.321454 0 1 poisson 210 ------- 0 0.0 1.0 45 45
r 0.324734 0 1 poisson 210 ------- 0 0.0 1.0 43 43
- 0.328174 0 1 poisson 210 ------- 0 0.0 1.0 46 46
r 0.331454 0 1 poisson 210 ------- 0 0.0 1.0 44 44
- 0.334894 0 1 poisson 30 ------- 0 0.0 1.0 47 47
- 0.335854 0 1 poisson 210 ------- 0 0.0 1.0 48 48
r 0.338174 0 1 poisson 210 ------- 0 0.0 1.0 45 45
+ 0.341925 0 1 poisson 210 ------- 0 0.0 1.0 128 128
+ 0.341925 0 1 poisson 210 ------- 0 0.0 1.0 129 129
+ 0.341925 0 1 poisson 210 ------- 0 0.0 1.0 130 130
+ 0.341925 0 1 poisson 210 ------- 0 0.0 1.0 131 131
+ 0.341925 0 1 poisson 210 ------- 0 0.0 1.0 132 132
d 0.341925 0 1 poisson 210 ------- 0 0.0 1.0 132 132
+ 0.341925 0 1 poisson 210 ------- 0 0.0 1.0 133 133
d 0.341925 0 1 poisson 210 ------- 0 0.0 1.0 133 133
+ 0.341925 0 1 poisson 210 ------- 0 0.0 1.0 134 134
d 0.341925 0 1 poisson 210 ------- 0 0.0 1.0 134 134
+ 0.341925 0 1 poisson 30 ------- 0 0.0 1.0 135 135
d 0.341925 0 1 poisson 30 ------- 0 0.0 1.0 135 135
- 0.342574 0 1 poisson 210 ------- 0 0.0 1.0 49 49
+ 0.343739 0 1 poisson 210 ------- 0 0.0 1.0 136 136
+ 0.343739 0 1 poisson 210 ------- 0 0.0 1.0 137 137
d 0.343739 0 1 poisson 210 ------- 0 0.0 1.0 137 137
+ 0.343739 0 1 poisson 210 ------- 0 0.0 1.0 138 138
d 0.343739 0 1 poisson 210 ------- 0 0.0 1.0 138 138
+ 0.343739 0 1 poisson 210 ------- 0 0.0 1.0 139 139
d 0.343739 0 1 poisson 210 ------- 0 0.0 1.0 139 139
+ 0.343739 0 1 poisson 210 ------- 0 0.0 1.0 140 140
d 0.343739 0 1 poisson 210 ------- 0 0.0 1.0 140 140
+ 0.343739 0 1 poisson 210 ------- 0 0.0 1.0 141 141
d 0.343739 0 1 poisson 210 ------- 0 0.0 1.0 141 141
+ 0.343739 0 1 poisson 210 ------- 0 0.0 1.0 142 142
d 0.343739 0 1 poisson 210 ------- 0 0.0 1.0 142 142
+ 0.343739 0 1 poisson 30 ------- 0 0.0 1.0 143 143
d 0.343739 0 1 poisson 30 ------- 0 0.0 1.0 143 143
r 0.344894 0 1 poisson 210 ------- 0 0.0 1.0 46 46
r 0.345854 0 1 poisson 30 ------- 0 0.0 1.0 47 47
- 0.349294 0 1 poisson 210 ------- 0 0.0 1.0 50 50
r 0.352574 0 1 poisson 210 ------- 0 0.0 1.0 48 48
+ 0.354045 0 1 poisson 210 ------- 0 0.0 1.0 144 144
+ 0.354045 0 1 poisson 210 ------- 0 0.0 1.0 145 145
d 0.354045 0 1 poisson 210 ------- 0 0.0 1.0 145 145
+ 0.354045 0 1 poisson 210 ------- 0 0.0 1.0 146 146
d 0.354045 0 1 poisson 210 ------- 0 0.0 1.0 146 146
+ 0.354045 0 1 poisson 210 ------- 0 0.0 1.0 147 147
d 0.354045 0 1 poisson 210 ------- 0 0.0 1.0 147 147
+ 0.354045 0 1 poisson 210 ------- 0 0.0 1.0 148 148
d 0.354045 0 1 poisson 210 ------- 0 0.0 1.0 148 148
+ 0.354045 0 1 poisson 210 ------- 0 0.0 1.0 149 149
d 0.354045 0 1 poisson 210 ------- 0 0.0 1.0 149 149
+ 0.354045 0 1 poisson 210 ------- 0 0.0 1.0 150 150
d 0.354045 0 1 poisson 210 ------- 0 0.0 1.0 150 150
+ 0.354045 0 1 poisson 30 ------- 0 0.0 1.0 151 151
d 0.354045 0 1 poisson 30 ------- 0 0.0 1.0 151 151
- 0.356014 0 1 poisson 210 ------- 0 0.0 1.0 51 51
r 0.359294 0 1 poisson 210 ------- 0 0.0 1.0 49 49
- 0.362734 0 1 poisson 210 ------- 0 0.0 1.0 52 52
r 0.366014 0 1 poisson 210 ------- 0 0.0 1.0 50 50
- 0.369454 0 1 poisson 210 ------- 0 0.0 1.0 53 53
r 0.372734 0 1 poisson 210 ------- 0 0.0 1.0 51 51
+ 0.374974 0 1 poisson 210 ------- 0 0.0 1.0 152 152
+ 0.374974 0 1 poisson 210 ------- 0 0.0 1.0 153 153
+ 0.374974 0 1 poisson 210 ------- 0 0.0 1.0 154 154
+ 0.374974 0 1 poisson 210 ------- 0 0.0 1.0 155 155
d 0.374974 0 1 poisson 210 ------- 0 0.0 1.0 155 155
+ 0.374974 0 1 poisson 210 ------- 0 0.0 1.0 156 156
d 0.374974 0 1 poisson 210 ------- 0 0.0 1.0 156 156
+ 0.374974 0 1 poisson 210 ------- 0 0.0 1.0 157 157
d 0.374974 0 1 poisson 210 ------- 0 0.0 1.0 157 157
+ 0.374974 0 1 poisson 210 ------- 0 0.0 1.0 158 158
d 0.374974 0 1 poisson 210 ------- 0 0.0 1.0 158 158
+ 0.374974 0 1 poisson 30 ------- 0 0.0 1.0 159 159
d 0.374974 0 1 poisson 30 ------- 0 0.0 1.0 159 159
- 0.376174 0 1 poisson 210 ------- 0 0.0 1.0 54 54
r 0.379454 0 1 poisson 210 ------- 0 0.0 1.0 52 52
- 0.382894 0 1 poisson 30 ------- 0 0.0 1.0 55 55
- 0.383854 0 1 poisson 210 ------- 0 0.0 1.0 56 56
r 0.386174 0 1 poisson 210 ------- 0 0.0 1.0 53 53
- 0.390574 0 1 poisson 210 ------- 0 0.0 1.0 57 57
r 0.392894 0 1 poisson 210 ------- 0 0.0 1.0 54 54
r 0.393854 0 1 poisson 30 ------- 0 0.0 1.0 55 55
- 0.397294 0 1 poisson 210 ------- 0 0.0 1.0 58 58
r 0.400574 0 1 poisson 210 ------- 0 0.0 1.0 56 56
+ 0.40333 0 1 poisson 210 ------- 0 0.0 1.0 160 160
+ 0.40333 0 1 poisson 210 ------- 0 0.0 1.0 161 161
+ 0.40333 0 1 poisson 210 ------- 0 0.0 1.0 162 162
+ 0.40333 0 1 poisson 210 ------- 0 0.0 1.0 163 163
+ 0.40333 0 1 poisson 210 ------- 0 0.0 1.0 164 164
+ 0.40333 0 1 poisson 210 ------- 0 0.0 1.0 165 165
d 0.40333 0 1 poisson 210 ------- 0 0.0 1.0 165 165
+ 0.40333 0 1 poisson 210 ------- 0 0.0 1.0 166 166
d 0.40333 0 1 poisson 210 ------- 0 0.0 1.0 166 166
+ 0.40333 0 1 poisson 30 ------- 0 0.0 1.0 167 167
d 0.40333 0 1 poisson 30 ------- 0 0.0 1.0 167 167
- 0.404014 0 1 poisson 210 ------- 0 0.0 1.0 59 59
+ 0.405902 0 1 poisson 210 ------- 0 0.0 1.0 168 168
+ 0.405902 0 1 poisson 210 ------- 0 0.0 1.0 169 169
d 0.405902 0 1 poisson 210 ------- 0 0.0 1.0 169 169
+ 0.405902 0 1 poisson 210 ------- 0 0.0 1.0 170 170
d 0.405902 0 1 poisson 210 ------- 0 0.0 1.0 170 170
+ 0.405902 0 1 poisson 210 ------- 0 0.0 1.0 171 171
d 0.405902 0 1 poisson 210 ------- 0 0.0 1.0 171 171
+ 0.405902 0 1 poisson 210 ------- 0 0.0 1.0 172 172
d 0.405902 0 1 poisson 210 ------- 0 0.0 1.0 172 172
+ 0.405902 0 1 poisson 210 ------- 0 0.0 1.0 173 173
d 0.405902 0 1 poisson 210 ------- 0 0.0 1.0 173 173
+ 0.405902 0 1 poisson 210 ------- 0 0.0 1.0 174 174
d 0.405902 0 1 poisson 210 ------- 0 0.0 1.0 174 174
+ 0.405902 0 1 poisson 30 ------- 0 0.0 1.0 175 175
d 0.405902 0 1 poisson 30 ------- 0 0.0 1.0 175 175
r 0.407294 0 1 poisson 210 ------- 0 0.0 1.0 57 57
- 0.410734 0 1 poisson 210 ------- 0 0.0 1.0 60 60
r 0.414014 0 1 poisson 210 ------- 0 0.0 1.0 58 58
- 0.417454 0 1 poisson 210 ------- 0 0.0 1.0 61 61
+ 0.418544 0 1 poisson 210 ------- 0 0.0 1.0 176 176
+ 0.418544 0 1 poisson 210 ------- 0 0.0 1.0 177 177
+ 0.418544 0 1 poisson 210 ------- 0 0.0 1.0 178 178
d 0.418544 0 1 poisson 210 ------- 0 0.0 1.0 178 178
+ 0.418544 0 1 poisson 210 ------- 0 0.0 1.0 179 179
d 0.418544 0 1 poisson 210 ------- 0 0.0 1.0 179 179
+ 0.418544 0 1 poisson 210 ------- 0 0.0 1.0 180 180
d 0.418544 0 1 poisson 210 ------- 0 0.0 1.0 180 180
+ 0.418544 0 1 poisson 210 ------- 0 0.0 1.0 181 181
d 0.418544 0 1 poisson 210 ------- 0 0.0 1.0 181 181
+ 0.418544 0 1 poisson 210 ------- 0 0.0 1.0 182 182
d 0.418544 0 1 poisson 210 ------- 0 0.0 1.0 182 182
+ 0.418544 0 1 poisson 30 ------- 0 0.0 1.0 183 183
d 0.418544 0 1 poisson 30 ------- 0 0.0 1.0 183 183
r 0.420734 0 1 poisson 210 ------- 0 0.0 1.0 59 59
- 0.424174 0 1 poisson 210 ------- 0 0.0 1.0 62 62
r 0.427454 0 1 poisson 210 ------- 0 0.0 1.0 60 60
- 0.430894 0 1 poisson 30 ------- 0 0.0 1.0 63 63
- 0.431854 0 1 poisson 210 ------- 0 0.0 1.0 64 64
r 0.434174 0 1 poisson 210 ------- 0 0.0 1.0 61 61
+ 0.434797 0 1 poisson 210 ------- 0 0.0 1.0 184 184
+ 0.434797 0 1 poisson 210 ------- 0 0.0 1.0 185 185
+ 0.434797 0 1 poisson 210 ------- 0 0.0 1.0 186 186
+ 0.434797 0 1 poisson 210 ------- 0 0.0 1.0 187 187
d 0.434797 0 1 poisson 210 ------- 0 0.0 1.0 187 187
+ 0.434797 0 1 poisson 210 ------- 0 0.0 1.0 188 188
d 0.434797 0 1 poisson 210 ------- 0 0.0 1.0 188 188
+ 0.434797 0 1 poisson 210 ------- 0 0.0 1.0 189 189
d 0.434797 0 1 poisson 210 ------- 0 0.0 1.0 189 189
+ 0.434797 0 1 poisson 210 ------- 0 0.0 1.0 190 190
d 0.434797 0 1 poisson 210 ------- 0 0.0 1.0 190 190
+ 0.434797 0 1 poisson 30 ------- 0 0.0 1.0 191 191
d 0.434797 0 1 poisson 30 ------- 0 0.0 1.0 191 191
- 0.438574 0 1 poisson 210 ------- 0 0.0 1.0 65 65
r 0.440894 0 1 poisson 210 ------- 0 0.0 1.0 62 62
r 0.441854 0 1 poisson 30 ------- 0 0.0 1.0 63 63
- 0.445294 0 1 poisson 210 ------- 0 0.0 1.0 66 66
+ 0.445535 0 1 poisson 210 ------- 0 0.0 1.0 192 192
+ 0.445535 0 1 poisson 210 ------- 0 0.0 1.0 193 193
+ 0.445535 0 1 poisson 210 ------- 0 0.0 1.0 194 194
d 0.445535 0 1 poisson 210 ------- 0 0.0 1.0 194 194
+ 0.445535 0 1 poisson 210 ------- 0 0.0 1.0 195 195
d 0.445535 0 1 poisson 210 ------- 0 0.0 1.0 195 195
+ 0.445535 0 1 poisson 210 ------- 0 0.0 1.0 196 196
d 0.445535 0 1 poisson 210 ------- 0 0.0 1.0 196 196
+ 0.445535 0 1 poisson 210 ------- 0 0.0 1.0 197 197
d 0.445535 0 1 poisson 210 ------- 0 0.0 1.0 197 197
+ 0.445535 0 1 poisson 210 ------- 0 0.0 1.0 198 198
d 0.445535 0 1 poisson 210 ------- 0 0.0 1.0 198 198
+ 0.445535 0 1 poisson 30 ------- 0 0.0 1.0 199 199
d 0.445535 0 1 poisson 30 ------- 0 0.0 1.0 199 199
r 0.448574 0 1 poisson 210 ------- 0 0.0 1.0 64 64
- 0.452014 0 1 poisson 210 ------- 0 0.0 1.0 67 67
+ 0.453413 0 1 poisson 210 ------- 0 0.0 1.0 200 200
+ 0.453413 0 1 poisson 210 ------- 0 0.0 1.0 201 201
d 0.453413 0 1 poisson 210 ------- 0 0.0 1.0 201 201
+ 0.453413 0 1 poisson 210 ------- 0 0.0 1.0 202 202
d 0.453413 0 1 poisson 210 ------- 0 0.0 1.0 202 202
+ 0.453413 0 1 poisson 210 ------- 0 0.0 1.0 203 203
d 0.453413 0 1 poisson 210 ------- 0 0.0 1.0 203 203
+ 0.453413 0 1 poisson 210 ------- 0 0.0 1.0 204 204
d 0.453413 0 1 poisson 210 ------- 0 0.0 1.0 204 204
+ 0.453413 0 1 poisson 210 ------- 0 0.0 1.0 205 205
d 0.453413 0 1 poisson 210 ------- 0 0.0 1.0 205 205
+ 0.453413 0 1 poisson 210 ------- 0 0.0 1.0 206 206
d 0.453413 0 1 poisson 210 ------- 0 0.0 1.0 206 206
+ 0.453413 0 1 poisson 30 ------- 0 0.0 1.0 207 207
d 0.453413 0 1 poisson 30 ------- 0 0.0 1.0 207 207
r 0.455294 0 1 poisson 210 ------- 0 0.0 1.0 65 65
- 0.458734 0 1 poisson 210 ------- 0 0.0 1.0 68 68
r 0.462014 0 1 poisson 210 ------- 0 0.0 1.0 66 66
+ 0.462573 0 1 poisson 210 ------- 0 0.0 1.0 208 208
+ 0.462573 0 1 poisson 210 ------- 0 0.0 1.0 209 209
d 0.462573 0 1 poisson 210 ------- 0 0.0 1.0 209 209
+ 0.462573 0 1 poisson 210 ------- 0 0.0 1.0 210 210
d 0.462573 0 1 poisson 210 ------- 0 0.0 1.0 210 210
+ 0.462573 0 1 poisson 210 ------- 0 0.0 1.0 211 211
d 0.462573 0 1 poisson 210 ------- 0 0.0 1.0 211 211
+ 0.462573 0 1 poisson 210 ------- 0 0.0 1.0 212 212
d 0.462573 0 1 poisson 210 ------- 0 0.0 1.0 212 212
+ 0.462573 0 1 poisson 210 ------- 0 0.0 1.0 213 213
d 0.462573 0 1 poisson 210 ------- 0 0.0 1.0 213 213
+ 0.462573 0 1 poisson 210 ------- 0 0.0 1.0 214 214
d 0.462573 0 1 poisson 210 ------- 0 0.0 1.0 214 214
+ 0.462573 0 1 poisson 30 ------- 0 0.0 1.0 215 215
d 0.462573 0 1 poisson 30 ------- 0 0.0 1.0 215 215
- 0.465454 0 1 poisson 210 ------- 0 0.0 1.0 69 69
+ 0.466986 0 1 poisson 210 ------- 0 0.0 1.0 216 216
+ 0.466986 0 1 poisson 210 ------- 0 0.0 1.0 217 217
d 0.466986 0 1 poisson 210 ------- 0 0.0 1.0 217 217
+ 0.466986 0 1 poisson 210 ------- 0 0.0 1.0 218 218
d 0.466986 0 1 poisson 210 ------- 0 0.0 1.0 218 218
+ 0.466986 0 1 poisson 210 ------- 0 0.0 1.0 219 219
d 0.466986 0 1 poisson 210 ------- 0 0.0 1.0 219 219
+ 0.466986 0 1 poisson 210 ------- 0 0.0 1.0 220 220
d 0.466986 0 1 poisson 210 ------- 0 0.0 1.0 220 220
+ 0.466986 0 1 poisson 210 ------- 0 0.0 1.0 221 221
d 0.466986 0 1 poisson 210 ------- 0 0.0 1.0 221 221
+ 0.466986 0 1 poisson 210 ------- 0 0.0 1.0 222 222
d 0.466986 0 1 poisson 210 ------- 0 0.0 1.0 222 222
+ 0.466986 0 1 poisson 30 ------- 0 0.0 1.0 223 223
d 0.466986 0 1 poisson 30 ------- 0 0.0 1.0 223 223
r 0.468734 0 1 poisson 210 ------- 0 0.0 1.0 67 67
+ 0.468767 0 1 poisson 210 ------- 0 0.0 1.0 224 224
d 0.468767 0 1 poisson 210 ------- 0 0.0 1.0 224 224
+ 0.468767 0 1 poisson 210 ------- 0 0.0 1.0 225 225
d 0.468767 0 1 poisson 210 ------- 0 0.0 1.0 225 225
+ 0.468767 0 1 poisson 210 ------- 0 0.0 1.0 226 226
d 0.468767 0 1 poisson 210 ------- 0 0.0 1.0 226 226
+ 0.468767 0 1 poisson 210 ------- 0 0.0 1.0 227 227
d 0.468767 0 1 poisson 210 ------- 0 0.0 1.0 227 227
+ 0.468767 0 1 poisson 210 ------- 0 0.0 1.0 228 228
d 0.468767 0 1 poisson 210 ------- 0 0.0 1.0 228 228
+ 0.468767 0 1 poisson 210 ------- 0 0.0 1.0 229 229
d 0.468767 0 1 poisson 210 ------- 0 0.0 1.0 229 229
+ 0.468767 0 1 poisson 210 ------- 0 0.0 1.0 230 230
d 0.468767 0 1 poisson 210 ------- 0 0.0 1.0 230 230
+ 0.468767 0 1 poisson 30 ------- 0 0.0 1.0 231 231
d 0.468767 0 1 poisson 30 ------- 0 0.0 1.0 231 231
+ 0.470861 0 1 poisson 210 ------- 0 0.0 1.0 232 232
d 0.470861 0 1 poisson 210 ------- 0 0.0 1.0 232 232
+ 0.470861 0 1 poisson 210 ------- 0 0.0 1.0 233 233
d 0.470861 0 1 poisson 210 ------- 0 0.0 1.0 233 233
+ 0.470861 0 1 poisson 210 ------- 0 0.0 1.0 234 234
d 0.470861 0 1 poisson 210 ------- 0 0.0 1.0 234 234
+ 0.470861 0 1 poisson 210 ------- 0 0.0 1.0 235 235
d 0.470861 0 1 poisson 210 ------- 0 0.0 1.0 235 235
+ 0.470861 0 1 poisson 210 ------- 0 0.0 1.0 236 236
d 0.470861 0 1 poisson 210 ------- 0 0.0 1.0 236 236
+ 0.470861 0 1 poisson 210 ------- 0 0.0 1.0 237 237
d 0.470861 0 1 poisson 210 ------- 0 0.0 1.0 237 237
+ 0.470861 0 1 poisson 210 ------- 0 0.0 1.0 238 238
d 0.470861 0 1 poisson 210 ------- 0 0.0 1.0 238 238
+ 0.470861 0 1 poisson 30 ------- 0 0.0 1.0 239 239
d 0.470861 0 1 poisson 30 ------- 0 0.0 1.0 239 239
- 0.472174 0 1 poisson 210 ------- 0 0.0 1.0 70 70
r 0.475454 0 1 poisson 210 ------- 0 0.0 1.0 68 68
- 0.478894 0 1 poisson 30 ------- 0 0.0 1.0 71 71
- 0.479854 0 1 poisson 210 ------- 0 0.0 1.0 72 72
r 0.482174 0 1 poisson 210 ------- 0 0.0 1.0 69 69
- 0.486574 0 1 poisson 210 ------- 0 0.0 1.0 73 73
r 0.488894 0 1 poisson 210 ------- 0 0.0 1.0 70 70
+ 0.489187 0 1 poisson 210 ------- 0 0.0 1.0 240 240
+ 0.489187 0 1 poisson 210 ------- 0 0.0 1.0 241 241
+ 0.489187 0 1 poisson 210 ------- 0 0.0 1.0 242 242
+ 0.489187 0 1 poisson 210 ------- 0 0.0 1.0 243 243
+ 0.489187 0 1 poisson 210 ------- 0 0.0 1.0 244 244
d 0.489187 0 1 poisson 210 ------- 0 0.0 1.0 244 244
+ 0.489187 0 1 poisson 210 ------- 0 0.0 1.0 245 245
d 0.489187 0 1 poisson 210 ------- 0 0.0 1.0 245 245
+ 0.489187 0 1 poisson 210 ------- 0 0.0 1.0 246 246
d 0.489187 0 1 poisson 210 ------- 0 0.0 1.0 246 246
+ 0.489187 0 1 poisson 30 ------- 0 0.0 1.0 247 247
d 0.489187 0 1 poisson 30 ------- 0 0.0 1.0 247 247
r 0.489854 0 1 poisson 30 ------- 0 0.0 1.0 71 71
- 0.493294 0 1 poisson 210 ------- 0 0.0 1.0 74 74
r 0.496574 0 1 poisson 210 ------- 0 0.0 1.0 72 72
- 0.500014 0 1 poisson 210 ------- 0 0.0 1.0 75 75
r 0.503294 0 1 poisson 210 ------- 0 0.0 1.0 73 73
+ 0.506251 0 1 poisson 210 ------- 0 0.0 1.0 248 248
+ 0.506251 0 1 poisson 210 ------- 0 0.0 1.0 249 249
+ 0.506251 0 1 poisson 210 ------- 0 0.0 1.0 250 250
d 0.506251 0 1 poisson 210 ------- 0 0.0 1.0 250 250
+ 0.506251 0 1 poisson 210 ------- 0 0.0 1.0 251 251
d 0.506251 0 1 poisson 210 ------- 0 0.0 1.0 251 251
+ 0.506251 0 1 poisson 210 ------- 0 0.0 1.0 252 252
d 0.506251 0 1 poisson 210 ------- 0 0.0 1.0 252 252
+ 0.506251 0 1 poisson 210 ------- 0 0.0 1.0 253 253
d 0.506251 0 1 poisson 210 ------- 0 0.0 1.0 253 253
+ 0.506251 0 1 poisson 210 ------- 0 0.0 1.0 254 254
d 0.506251 0 1 poisson 210 ------- 0 0.0 1.0 254 254
+ 0.506251 0 1 poisson 30 ------- 0 0.0 1.0 255 255
d 0.506251 0 1 poisson 30 ------- 0 0.0 1.0 255 255
- 0.506734 0 1 poisson 210 ------- 0 0.0 1.0 76 76
+ 0.508186 0 1 poisson 210 ------- 0 0.0 1.0 256 256
+ 0.508186 0 1 poisson 210 ------- 0 0.0 1.0 257 257
d 0.508186 0 1 poisson 210 ------- 0 0.0 1.0 257 257
+ 0.508186 0 1 poisson 210 ------- 0 0.0 1.0 258 258
d 0.508186 0 1 poisson 210 ------- 0 0.0 1.0 258 258
+ 0.508186 0 1 poisson 210 ------- 0 0.0 1.0 259 259
d 0.508186 0 1 poisson 210 ------- 0 0.0 1.0 259 259
+ 0.508186 0 1 poisson 210 ------- 0 0.0 1.0 260 260
d 0.508186 0 1 poisson 210 ------- 0 0.0 1.0 260 260
+ 0.508186 0 1 poisson 210 ------- 0 0.0 1.0 261 261
d 0.508186 0 1 poisson 210 ------- 0 0.0 1.0 261 261
+ 0.508186 0 1 poisson 210 ------- 0 0.0 1.0 262 262
d 0.508186 0 1 poisson 210 ------- 0 0.0 1.0 262 262
+ 0.508186 0 1 poisson 30 ------- 0 0.0 1.0 263 263
d 0.508186 0 1 poisson 30 ------- 0 0.0 1.0 263 263
r 0.510014 0 1 poisson 210 ------- 0 0.0 1.0 74 74
+ 0.512861 0 1 poisson 210 ------- 0 0.0 1.0 264 264
d 0.512861 0 1 poisson 210 ------- 0 0.0 1.0 264 264
+ 0.512861 0 1 poisson 210 ------- 0 0.0 1.0 265 265
d 0.512861 0 1 poisson 210 ------- 0 0.0 1.0 265 265
+ 0.512861 0 1 poisson 210 ------- 0 0.0 1.0 266 266
d 0.512861 0 1 poisson 210 ------- 0 0.0 1.0 266 266
+ 0.512861 0 1 poisson 210 ------- 0 0.0 1.0 267 267
d 0.512861 0 1 poisson 210 ------- 0 0.0 1.0 267 267
+ 0.512861 0 1 poisson 210 ------- 0 0.0 1.0 268 268
d 0.512861 0 1 poisson 210 ------- 0 0.0 1.0 268 268
+ 0.512861 0 1 poisson 210 ------- 0 0.0 1.0 269 269
d 0.512861 0 1 poisson 210 ------- 0 0.0 1.0 269 269
+ 0.512861 0 1 poisson 210 ------- 0 0.0 1.0 270 270
d 0.512861 0 1 poisson 210 ------- 0 0.0 1.0 270 270
+ 0.512861 0 1 poisson 30 ------- 0 0.0 1.0 271 271
d 0.512861 0 1 poisson 30 ------- 0 0.0 1.0 271 271
- 0.513454 0 1 poisson 210 ------- 0 0.0 1.0 77 77
+ 0.516119 0 1 poisson 210 ------- 0 0.0 1.0 272 272
+ 0.516119 0 1 poisson 210 ------- 0 0.0 1.0 273 273
d 0.516119 0 1 poisson 210 ------- 0 0.0 1.0 273 273
+ 0.516119 0 1 poisson 210 ------- 0 0.0 1.0 274 274
d 0.516119 0 1 poisson 210 ------- 0 0.0 1.0 274 274
+ 0.516119 0 1 poisson 210 ------- 0 0.0 1.0 275 275
d 0.516119 0 1 poisson 210 ------- 0 0.0 1.0 275 275
+ 0.516119 0 1 poisson 210 ------- 0 0.0 1.0 276 276
d 0.516119 0 1 poisson 210 ------- 0 0.0 1.0 276 276
+ 0.516119 0 1 poisson 210 ------- 0 0.0 1.0 277 277