+ 0 0 1 cbr 210 ------- 0 0.0 1.0 0 0
- 0 0 1 cbr 210 ------- 0 0.0 1.0 0 0
+ 0.00375 0 1 cbr 210 ------- 0 0.0 1.0 1 1
- 0.00672 0 1 cbr 210 ------- 0 0.0 1.0 1 1
+ 0.0075 0 1 cbr 210 ------- 0 0.0 1.0 2 2
+ 0.01125 0 1 cbr 210 ------- 0 0.0 1.0 3 3
- 0.01344 0 1 cbr 210 ------- 0 0.0 1.0 2 2
+ 0.015 0 1 cbr 210 ------- 0 0.0 1.0 4 4
r 0.01672 0 1 cbr 210 ------- 0 0.0 1.0 0 0
+ 0.01875 0 1 cbr 210 ------- 0 0.0 1.0 5 5
- 0.02016 0 1 cbr 210 ------- 0 0.0 1.0 3 3
+ 0.0225 0 1 cbr 210 ------- 0 0.0 1.0 6 6
r 0.02344 0 1 cbr 210 ------- 0 0.0 1.0 1 1
+ 0.02625 0 1 cbr 210 ------- 0 0.0 1.0 7 7
- 0.02688 0 1 cbr 210 ------- 0 0.0 1.0 4 4
+ 0.03 0 1 cbr 210 ------- 0 0.0 1.0 8 8
r 0.03016 0 1 cbr 210 ------- 0 0.0 1.0 2 2
- 0.0336 0 1 cbr 210 ------- 0 0.0 1.0 5 5
+ 0.03375 0 1 cbr 210 ------- 0 0.0 1.0 9 9
r 0.03688 0 1 cbr 210 ------- 0 0.0 1.0 3 3
+ 0.0375 0 1 cbr 210 ------- 0 0.0 1.0 10 10
- 0.04032 0 1 cbr 210 ------- 0 0.0 1.0 6 6
+ 0.04125 0 1 cbr 210 ------- 0 0.0 1.0 11 11
r 0.0436 0 1 cbr 210 ------- 0 0.0 1.0 4 4
+ 0.045 0 1 cbr 210 ------- 0 0.0 1.0 12 12
- 0.04704 0 1 cbr 210 ------- 0 0.0 1.0 7 7
+ 0.04875 0 1 cbr 210 ------- 0 0.0 1.0 13 13
r 0.05032 0 1 cbr 210 ------- 0 0.0 1.0 5 5
+ 0.0525 0 1 cbr 210 ------- 0 0.0 1.0 14 14
- 0.05376 0 1 cbr 210 ------- 0 0.0 1.0 8 8
+ 0.05625 0 1 cbr 210 ------- 0 0.0 1.0 15 15
r 0.05704 0 1 cbr 210 ------- 0 0.0 1.0 6 6
+ 0.06 0 1 cbr 210 ------- 0 0.0 1.0 16 16
- 0.06048 0 1 cbr 210 ------- 0 0.0 1.0 9 9
+ 0.06375 0 1 cbr 210 ------- 0 0.0 1.0 17 17
r 0.06376 0 1 cbr 210 ------- 0 0.0 1.0 7 7
- 0.0672 0 1 cbr 210 ------- 0 0.0 1.0 10 10
+ 0.0675 0 1 cbr 210 ------- 0 0.0 1.0 18 18
r 0.07048 0 1 cbr 210 ------- 0 0.0 1.0 8 8
+ 0.07125 0 1 cbr 210 ------- 0 0.0 1.0 19 19
- 0.07392 0 1 cbr 210 ------- 0 0.0 1.0 11 11
+ 0.075 0 1 cbr 210 ------- 0 0.0 1.0 20 20
r 0.0772 0 1 cbr 210 ------- 0 0.0 1.0 9 9
+ 0.07875 0 1 cbr 210 ------- 0 0.0 1.0 21 21
- 0.08064 0 1 cbr 210 ------- 0 0.0 1.0 12 12
+ 0.0825 0 1 cbr 210 ------- 0 0.0 1.0 22 22
r 0.08392 0 1 cbr 210 ------- 0 0.0 1.0 10 10
+ 0.08625 0 1 cbr 210 ------- 0 0.0 1.0 23 23
- 0.08736 0 1 cbr 210 ------- 0 0.0 1.0 13 13
+ 0.09 0 1 cbr 210 ------- 0 0.0 1.0 24 24
r 0.09064 0 1 cbr 210 ------- 0 0.0 1.0 11 11
+ 0.09375 0 1 cbr 210 ------- 0 0.0 1.0 25 25
- 0.09408 0 1 cbr 210 ------- 0 0.0 1.0 14 14
r 0.09736 0 1 cbr 210 ------- 0 0.0 1.0 12 12
+ 0.0975 0 1 cbr 210 ------- 0 0.0 1.0 26 26
- 0.1008 0 1 cbr 210 ------- 0 0.0 1.0 15 15
+ 0.10125 0 1 cbr 210 ------- 0 0.0 1.0 27 27
r 0.10408 0 1 cbr 210 ------- 0 0.0 1.0 13 13
+ 0.105 0 1 cbr 210 ------- 0 0.0 1.0 28 28
- 0.10752 0 1 cbr 210 ------- 0 0.0 1.0 16 16
+ 0.10875 0 1 cbr 210 ------- 0 0.0 1.0 29 29
r 0.1108 0 1 cbr 210 ------- 0 0.0 1.0 14 14
+ 0.1125 0 1 cbr 210 ------- 0 0.0 1.0 30 30
- 0.11424 0 1 cbr 210 ------- 0 0.0 1.0 17 17
+ 0.11625 0 1 cbr 210 ------- 0 0.0 1.0 31 31
r 0.11752 0 1 cbr 210 ------- 0 0.0 1.0 15 15
+ 0.12 0 1 cbr 210 ------- 0 0.0 1.0 32 32
- 0.12096 0 1 cbr 210 ------- 0 0.0 1.0 18 18
+ 0.12375 0 1 cbr 210 ------- 0 0.0 1.0 33 33
r 0.12424 0 1 cbr 210 ------- 0 0.0 1.0 16 16
+ 0.1275 0 1 cbr 210 ------- 0 0.0 1.0 34 34
- 0.12768 0 1 cbr 210 ------- 0 0.0 1.0 19 19
r 0.13096 0 1 cbr 210 ------- 0 0.0 1.0 17 17
+ 0.13125 0 1 cbr 210 ------- 0 0.0 1.0 35 35
- 0.1344 0 1 cbr 210 ------- 0 0.0 1.0 20 20
+ 0.135 0 1 cbr 210 ------- 0 0.0 1.0 36 36
r 0.13768 0 1 cbr 210 ------- 0 0.0 1.0 18 18
+ 0.13875 0 1 cbr 210 ------- 0 0.0 1.0 37 37
- 0.14112 0 1 cbr 210 ------- 0 0.0 1.0 21 21
+ 0.1425 0 1 cbr 210 ------- 0 0.0 1.0 38 38
r 0.1444 0 1 cbr 210 ------- 0 0.0 1.0 19 19
+ 0.14625 0 1 cbr 210 ------- 0 0.0 1.0 39 39
- 0.14784 0 1 cbr 210 ------- 0 0.0 1.0 22 22
+ 0.15 0 1 cbr 210 ------- 0 0.0 1.0 40 40
r 0.15112 0 1 cbr 210 ------- 0 0.0 1.0 20 20
+ 0.15375 0 1 cbr 210 ------- 0 0.0 1.0 41 41
- 0.15456 0 1 cbr 210 ------- 0 0.0 1.0 23 23
+ 0.1575 0 1 cbr 210 ------- 0 0.0 1.0 42 42
r 0.15784 0 1 cbr 210 ------- 0 0.0 1.0 21 21
+ 0.16125 0 1 cbr 210 ------- 0 0.0 1.0 43 43
- 0.16128 0 1 cbr 210 ------- 0 0.0 1.0 24 24
r 0.16456 0 1 cbr 210 ------- 0 0.0 1.0 22 22
+ 0.165 0 1 cbr 210 ------- 0 0.0 1.0 44 44
- 0.168 0 1 cbr 210 ------- 0 0.0 1.0 25 25
+ 0.16875 0 1 cbr 210 ------- 0 0.0 1.0 45 45
r 0.17128 0 1 cbr 210 ------- 0 0.0 1.0 23 23
+ 0.1725 0 1 cbr 210 ------- 0 0.0 1.0 46 46
- 0.17472 0 1 cbr 210 ------- 0 0.0 1.0 26 26
+ 0.17625 0 1 cbr 210 ------- 0 0.0 1.0 47 47
r 0.178 0 1 cbr 210 ------- 0 0.0 1.0 24 24
+ 0.18 0 1 cbr 210 ------- 0 0.0 1.0 48 48
- 0.18144 0 1 cbr 210 ------- 0 0.0 1.0 27 27
+ 0.18375 0 1 cbr 210 ------- 0 0.0 1.0 49 49
r 0.18472 0 1 cbr 210 ------- 0 0.0 1.0 25 25
+ 0.1875 0 1 cbr 210 ------- 0 0.0 1.0 50 50
- 0.18816 0 1 cbr 210 ------- 0 0.0 1.0 28 28
+ 0.19125 0 1 cbr 210 ------- 0 0.0 1.0 51 51
r 0.19144 0 1 cbr 210 ------- 0 0.0 1.0 26 26
- 0.19488 0 1 cbr 210 ------- 0 0.0 1.0 29 29
+ 0.195 0 1 cbr 210 ------- 0 0.0 1.0 52 52
r 0.19816 0 1 cbr 210 ------- 0 0.0 1.0 27 27
+ 0.19875 0 1 cbr 210 ------- 0 0.0 1.0 53 53
- 0.2016 0 1 cbr 210 ------- 0 0.0 1.0 30 30
+ 0.2025 0 1 cbr 210 ------- 0 0.0 1.0 54 54
r 0.20488 0 1 cbr 210 ------- 0 0.0 1.0 28 28
+ 0.20625 0 1 cbr 210 ------- 0 0.0 1.0 55 55
- 0.20832 0 1 cbr 210 ------- 0 0.0 1.0 31 31
+ 0.21 0 1 cbr 210 ------- 0 0.0 1.0 56 56
r 0.2116 0 1 cbr 210 ------- 0 0.0 1.0 29 29
+ 0.21375 0 1 cbr 210 ------- 0 0.0 1.0 57 57
- 0.21504 0 1 cbr 210 ------- 0 0.0 1.0 32 32
+ 0.2175 0 1 cbr 210 ------- 0 0.0 1.0 58 58
r 0.21832 0 1 cbr 210 ------- 0 0.0 1.0 30 30
+ 0.22125 0 1 cbr 210 ------- 0 0.0 1.0 59 59
- 0.22176 0 1 cbr 210 ------- 0 0.0 1.0 33 33
+ 0.225 0 1 cbr 210 ------- 0 0.0 1.0 60 60
r 0.22504 0 1 cbr 210 ------- 0 0.0 1.0 31 31
- 0.22848 0 1 cbr 210 ------- 0 0.0 1.0 34 34
+ 0.22875 0 1 cbr 210 ------- 0 0.0 1.0 61 61
r 0.23176 0 1 cbr 210 ------- 0 0.0 1.0 32 32
+ 0.2325 0 1 cbr 210 ------- 0 0.0 1.0 62 62
- 0.2352 0 1 cbr 210 ------- 0 0.0 1.0 35 35
+ 0.23625 0 1 cbr 210 ------- 0 0.0 1.0 63 63
r 0.23848 0 1 cbr 210 ------- 0 0.0 1.0 33 33
+ 0.24 0 1 cbr 210 ------- 0 0.0 1.0 64 64
- 0.24192 0 1 cbr 210 ------- 0 0.0 1.0 36 36
+ 0.24375 0 1 cbr 210 ------- 0 0.0 1.0 65 65
r 0.2452 0 1 cbr 210 ------- 0 0.0 1.0 34 34
+ 0.2475 0 1 cbr 210 ------- 0 0.0 1.0 66 66
- 0.24864 0 1 cbr 210 ------- 0 0.0 1.0 37 37
+ 0.25125 0 1 cbr 210 ------- 0 0.0 1.0 67 67
r 0.25192 0 1 cbr 210 ------- 0 0.0 1.0 35 35
+ 0.255 0 1 cbr 210 ------- 0 0.0 1.0 68 68
- 0.25536 0 1 cbr 210 ------- 0 0.0 1.0 38 38
r 0.25864 0 1 cbr 210 ------- 0 0.0 1.0 36 36
+ 0.25875 0 1 cbr 210 ------- 0 0.0 1.0 69 69
- 0.26208 0 1 cbr 210 ------- 0 0.0 1.0 39 39
+ 0.2625 0 1 cbr 210 ------- 0 0.0 1.0 70 70
r 0.26536 0 1 cbr 210 ------- 0 0.0 1.0 37 37
+ 0.26625 0 1 cbr 210 ------- 0 0.0 1.0 71 71
- 0.2688 0 1 cbr 210 ------- 0 0.0 1.0 40 40
+ 0.27 0 1 cbr 210 ------- 0 0.0 1.0 72 72
r 0.27208 0 1 cbr 210 ------- 0 0.0 1.0 38 38
+ 0.27375 0 1 cbr 210 ------- 0 0.0 1.0 73 73
- 0.27552 0 1 cbr 210 ------- 0 0.0 1.0 41 41
+ 0.2775 0 1 cbr 210 ------- 0 0.0 1.0 74 74
r 0.2788 0 1 cbr 210 ------- 0 0.0 1.0 39 39
+ 0.28125 0 1 cbr 210 ------- 0 0.0 1.0 75 75
- 0.28224 0 1 cbr 210 ------- 0 0.0 1.0 42 42
+ 0.285 0 1 cbr 210 ------- 0 0.0 1.0 76 76
r 0.28552 0 1 cbr 210 ------- 0 0.0 1.0 40 40
+ 0.28875 0 1 cbr 210 ------- 0 0.0 1.0 77 77
- 0.28896 0 1 cbr 210 ------- 0 0.0 1.0 43 43
r 0.29224 0 1 cbr 210 ------- 0 0.0 1.0 41 41
+ 0.2925 0 1 cbr 210 ------- 0 0.0 1.0 78 78
- 0.29568 0 1 cbr 210 ------- 0 0.0 1.0 44 44
+ 0.29625 0 1 cbr 210 ------- 0 0.0 1.0 79 79
r 0.29896 0 1 cbr 210 ------- 0 0.0 1.0 42 42
+ 0.3 0 1 cbr 210 ------- 0 0.0 1.0 80 80
- 0.3024 0 1 cbr 210 ------- 0 0.0 1.0 45 45
+ 0.30375 0 1 cbr 210 ------- 0 0.0 1.0 81 81
r 0.30568 0 1 cbr 210 ------- 0 0.0 1.0 43 43
+ 0.3075 0 1 cbr 210 ------- 0 0.0 1.0 82 82
- 0.30912 0 1 cbr 210 ------- 0 0.0 1.0 46 46
+ 0.31125 0 1 cbr 210 ------- 0 0.0 1.0 83 83
r 0.3124 0 1 cbr 210 ------- 0 0.0 1.0 44 44
+ 0.315 0 1 cbr 210 ------- 0 0.0 1.0 84 84
- 0.31584 0 1 cbr 210 ------- 0 0.0 1.0 47 47
+ 0.31875 0 1 cbr 210 ------- 0 0.0 1.0 85 85
r 0.31912 0 1 cbr 210 ------- 0 0.0 1.0 45 45
+ 0.3225 0 1 cbr 210 ------- 0 0.0 1.0 86 86
- 0.32256 0 1 cbr 210 ------- 0 0.0 1.0 48 48
r 0.32584 0 1 cbr 210 ------- 0 0.0 1.0 46 46
+ 0.32625 0 1 cbr 210 ------- 0 0.0 1.0 87 87
- 0.32928 0 1 cbr 210 ------- 0 0.0 1.0 49 49
+ 0.33 0 1 cbr 210 ------- 0 0.0 1.0 88 88
r 0.33256 0 1 cbr 210 ------- 0 0.0 1.0 47 47
+ 0.33375 0 1 cbr 210 ------- 0 0.0 1.0 89 89
- 0.336 0 1 cbr 210 ------- 0 0.0 1.0 50 50
+ 0.3375 0 1 cbr 210 ------- 0 0.0 1.0 90 90
r 0.33928 0 1 cbr 210 ------- 0 0.0 1.0 48 48
+ 0.34125 0 1 cbr 210 ------- 0 0.0 1.0 91 91
- 0.34272 0 1 cbr 210 ------- 0 0.0 1.0 51 51
+ 0.345 0 1 cbr 210 ------- 0 0.0 1.0 92 92
r 0.346 0 1 cbr 210 ------- 0 0.0 1.0 49 49
+ 0.34875 0 1 cbr 210 ------- 0 0.0 1.0 93 93
- 0.34944 0 1 cbr 210 ------- 0 0.0 1.0 52 52
+ 0.3525 0 1 cbr 210 ------- 0 0.0 1.0 94 94
r 0.35272 0 1 cbr 210 ------- 0 0.0 1.0 50 50
- 0.35616 0 1 cbr 210 ------- 0 0.0 1.0 53 53
+ 0.35625 0 1 cbr 210 ------- 0 0.0 1.0 95 95
r 0.35944 0 1 cbr 210 ------- 0 0.0 1.0 51 51
+ 0.36 0 1 cbr 210 ------- 0 0.0 1.0 96 96
- 0.36288 0 1 cbr 210 ------- 0 0.0 1.0 54 54
+ 0.36375 0 1 cbr 210 ------- 0 0.0 1.0 97 97
r 0.36616 0 1 cbr 210 ------- 0 0.0 1.0 52 52
+ 0.3675 0 1 cbr 210 ------- 0 0.0 1.0 98 98
- 0.3696 0 1 cbr 210 ------- 0 0.0 1.0 55 55
+ 0.37125 0 1 cbr 210 ------- 0 0.0 1.0 99 99
r 0.37288 0 1 cbr 210 ------- 0 0.0 1.0 53 53
+ 0.375 0 1 cbr 210 ------- 0 0.0 1.0 100 100
- 0.37632 0 1 cbr 210 ------- 0 0.0 1.0 56 56
+ 0.37875 0 1 cbr 210 ------- 0 0.0 1.0 101 101
r 0.3796 0 1 cbr 210 ------- 0 0.0 1.0 54 54
+ 0.3825 0 1 cbr 210 ------- 0 0.0 1.0 102 102
- 0.38304 0 1 cbr 210 ------- 0 0.0 1.0 57 57
+ 0.38625 0 1 cbr 210 ------- 0 0.0 1.0 103 103
r 0.38632 0 1 cbr 210 ------- 0 0.0 1.0 55 55
- 0.38976 0 1 cbr 210 ------- 0 0.0 1.0 58 58
+ 0.39 0 1 cbr 210 ------- 0 0.0 1.0 104 104
r 0.39304 0 1 cbr 210 ------- 0 0.0 1.0 56 56
+ 0.39375 0 1 cbr 210 ------- 0 0.0 1.0 105 105
- 0.39648 0 1 cbr 210 ------- 0 0.0 1.0 59 59
+ 0.3975 0 1 cbr 210 ------- 0 0.0 1.0 106 106
r 0.39976 0 1 cbr 210 ------- 0 0.0 1.0 57 57
+ 0.40125 0 1 cbr 210 ------- 0 0.0 1.0 107 107
- 0.4032 0 1 cbr 210 ------- 0 0.0 1.0 60 60
+ 0.405 0 1 cbr 210 ------- 0 0.0 1.0 108 108
r 0.40648 0 1 cbr 210 ------- 0 0.0 1.0 58 58
+ 0.40875 0 1 cbr 210 ------- 0 0.0 1.0 109 109
- 0.40992 0 1 cbr 210 ------- 0 0.0 1.0 61 61
+ 0.4125 0 1 cbr 210 ------- 0 0.0 1.0 110 110
r 0.4132 0 1 cbr 210 ------- 0 0.0 1.0 59 59
+ 0.41625 0 1 cbr 210 ------- 0 0.0 1.0 111 111
d 0.41625 0 1 cbr 210 ------- 0 0.0 1.0 111 111
- 0.41664 0 1 cbr 210 ------- 0 0.0 1.0 62 62
r 0.41992 0 1 cbr 210 ------- 0 0.0 1.0 60 60
+ 0.42 0 1 cbr 210 ------- 0 0.0 1.0 112 112
- 0.42336 0 1 cbr 210 ------- 0 0.0 1.0 63 63
+ 0.42375 0 1 cbr 210 ------- 0 0.0 1.0 113 113
r 0.42664 0 1 cbr 210 ------- 0 0.0 1.0 61 61
+ 0.4275 0 1 cbr 210 ------- 0 0.0 1.0 114 114
d 0.4275 0 1 cbr 210 ------- 0 0.0 1.0 114 114
- 0.43008 0 1 cbr 210 ------- 0 0.0 1.0 64 64
+ 0.43125 0 1 cbr 210 ------- 0 0.0 1.0 115 115
r 0.43336 0 1 cbr 210 ------- 0 0.0 1.0 62 62
+ 0.435 0 1 cbr 210 ------- 0 0.0 1.0 116 116
d 0.435 0 1 cbr 210 ------- 0 0.0 1.0 116 116
- 0.4368 0 1 cbr 210 ------- 0 0.0 1.0 65 65
+ 0.43875 0 1 cbr 210 ------- 0 0.0 1.0 117 117
r 0.44008 0 1 cbr 210 ------- 0 0.0 1.0 63 63
+ 0.4425 0 1 cbr 210 ------- 0 0.0 1.0 118 118
d 0.4425 0 1 cbr 210 ------- 0 0.0 1.0 118 118
- 0.44352 0 1 cbr 210 ------- 0 0.0 1.0 66 66
+ 0.44625 0 1 cbr 210 ------- 0 0.0 1.0 119 119
r 0.4468 0 1 cbr 210 ------- 0 0.0 1.0 64 64
+ 0.45 0 1 cbr 210 ------- 0 0.0 1.0 120 120
d 0.45 0 1 cbr 210 ------- 0 0.0 1.0 120 120
- 0.45024 0 1 cbr 210 ------- 0 0.0 1.0 67 67
r 0.45352 0 1 cbr 210 ------- 0 0.0 1.0 65 65
+ 0.45375 0 1 cbr 210 ------- 0 0.0 1.0 121 121
- 0.45696 0 1 cbr 210 ------- 0 0.0 1.0 68 68
+ 0.4575 0 1 cbr 210 ------- 0 0.0 1.0 122 122
r 0.46024 0 1 cbr 210 ------- 0 0.0 1.0 66 66
+ 0.46125 0 1 cbr 210 ------- 0 0.0 1.0 123 123
d 0.46125 0 1 cbr 210 ------- 0 0.0 1.0 123 123
- 0.46368 0 1 cbr 210 ------- 0 0.0 1.0 69 69
+ 0.465 0 1 cbr 210 ------- 0 0.0 1.0 124 124
r 0.46696 0 1 cbr 210 ------- 0 0.0 1.0 67 67
+ 0.46875 0 1 cbr 210 ------- 0 0.0 1.0 125 125
d 0.46875 0 1 cbr 210 ------- 0 0.0 1.0 125 125
- 0.4704 0 1 cbr 210 ------- 0 0.0 1.0 70 70
+ 0.4725 0 1 cbr 210 ------- 0 0.0 1.0 126 126
r 0.47368 0 1 cbr 210 ------- 0 0.0 1.0 68 68
+ 0.47625 0 1 cbr 210 ------- 0 0.0 1.0 127 127
d 0.47625 0 1 cbr 210 ------- 0 0.0 1.0 127 127
- 0.47712 0 1 cbr 210 ------- 0 0.0 1.0 71 71
+ 0.48 0 1 cbr 210 ------- 0 0.0 1.0 128 128
r 0.4804 0 1 cbr 210 ------- 0 0.0 1.0 69 69
+ 0.48375 0 1 cbr 210 ------- 0 0.0 1.0 129 129
d 0.48375 0 1 cbr 210 ------- 0 0.0 1.0 129 129
- 0.48384 0 1 cbr 210 ------- 0 0.0 1.0 72 72
r 0.48712 0 1 cbr 210 ------- 0 0.0 1.0 70 70
+ 0.4875 0 1 cbr 210 ------- 0 0.0 1.0 130 130
- 0.49056 0 1 cbr 210 ------- 0 0.0 1.0 73 73
+ 0.49125 0 1 cbr 210 ------- 0 0.0 1.0 131 131
r 0.49384 0 1 cbr 210 ------- 0 0.0 1.0 71 71
+ 0.495 0 1 cbr 210 ------- 0 0.0 1.0 132 132
d 0.495 0 1 cbr 210 ------- 0 0.0 1.0 132 132
- 0.49728 0 1 cbr 210 ------- 0 0.0 1.0 74 74
+ 0.49875 0 1 cbr 210 ------- 0 0.0 1.0 133 133
r 0.50056 0 1 cbr 210 ------- 0 0.0 1.0 72 72
+ 0.5025 0 1 cbr 210 ------- 0 0.0 1.0 134 134
d 0.5025 0 1 cbr 210 ------- 0 0.0 1.0 134 134
- 0.504 0 1 cbr 210 ------- 0 0.0 1.0 75 75
+ 0.50625 0 1 cbr 210 ------- 0 0.0 1.0 135 135
r 0.50728 0 1 cbr 210 ------- 0 0.0 1.0 73 73
+ 0.51 0 1 cbr 210 ------- 0 0.0 1.0 136 136
d 0.51 0 1 cbr 210 ------- 0 0.0 1.0 136 136
- 0.51072 0 1 cbr 210 ------- 0 0.0 1.0 76 76
+ 0.51375 0 1 cbr 210 ------- 0 0.0 1.0 137 137
r 0.514 0 1 cbr 210 ------- 0 0.0 1.0 74 74
- 0.51744 0 1 cbr 210 ------- 0 0.0 1.0 77 77
+ 0.5175 0 1 cbr 210 ------- 0 0.0 1.0 138 138
r 0.52072 0 1 cbr 210 ------- 0 0.0 1.0 75 75
+ 0.52125 0 1 cbr 210 ------- 0 0.0 1.0 139 139
d 0.52125 0 1 cbr 210 ------- 0 0.0 1.0 139 139
- 0.52416 0 1 cbr 210 ------- 0 0.0 1.0 78 78
+ 0.525 0 1 cbr 210 ------- 0 0.0 1.0 140 140
r 0.52744 0 1 cbr 210 ------- 0 0.0 1.0 76 76
+ 0.52875 0 1 cbr 210 ------- 0 0.0 1.0 141 141
d 0.52875 0 1 cbr 210 ------- 0 0.0 1.0 141 141
- 0.53088 0 1 cbr 210 ------- 0 0.0 1.0 79 79
+ 0.5325 0 1 cbr 210 ------- 0 0.0 1.0 142 142
r 0.53416 0 1 cbr 210 ------- 0 0.0 1.0 77 77
+ 0.53625 0 1 cbr 210 ------- 0 0.0 1.0 143 143
d 0.53625 0 1 cbr 210 ------- 0 0.0 1.0 143 143
- 0.5376 0 1 cbr 210 ------- 0 0.0 1.0 80 80
+ 0.54 0 1 cbr 210 ------- 0 0.0 1.0 144 144
r 0.54088 0 1 cbr 210 ------- 0 0.0 1.0 78 78
+ 0.54375 0 1 cbr 210 ------- 0 0.0 1.0 145 145
d 0.54375 0 1 cbr 210 ------- 0 0.0 1.0 145 145
- 0.54432 0 1 cbr 210 ------- 0 0.0 1.0 81 81
+ 0.5475 0 1 cbr 210 ------- 0 0.0 1.0 146 146
r 0.5476 0 1 cbr 210 ------- 0 0.0 1.0 79 79
- 0.55104 0 1 cbr 210 ------- 0 0.0 1.0 82 82
+ 0.55125 0 1 cbr 210 ------- 0 0.0 1.0 147 147
r 0.55432 0 1 cbr 210 ------- 0 0.0 1.0 80 80
+ 0.555 0 1 cbr 210 ------- 0 0.0 1.0 148 148
d 0.555 0 1 cbr 210 ------- 0 0.0 1.0 148 148
- 0.55776 0 1 cbr 210 ------- 0 0.0 1.0 83 83
+ 0.55875 0 1 cbr 210 ------- 0 0.0 1.0 149 149
r 0.56104 0 1 cbr 210 ------- 0 0.0 1.0 81 81
+ 0.5625 0 1 cbr 210 ------- 0 0.0 1.0 150 150
d 0.5625 0 1 cbr 210 ------- 0 0.0 1.0 150 150
- 0.56448 0 1 cbr 210 ------- 0 0.0 1.0 84 84
+ 0.56625 0 1 cbr 210 ------- 0 0.0 1.0 151 151
r 0.56776 0 1 cbr 210 ------- 0 0.0 1.0 82 82
+ 0.57 0 1 cbr 210 ------- 0 0.0 1.0 152 152
d 0.57 0 1 cbr 210 ------- 0 0.0 1.0 152 152
- 0.5712 0 1 cbr 210 ------- 0 0.0 1.0 85 85
+ 0.57375 0 1 cbr 210 ------- 0 0.0 1.0 153 153
r 0.57448 0 1 cbr 210 ------- 0 0.0 1.0 83 83
+ 0.5775 0 1 cbr 210 ------- 0 0.0 1.0 154 154
d 0.5775 0 1 cbr 210 ------- 0 0.0 1.0 154 154
- 0.57792 0 1 cbr 210 ------- 0 0.0 1.0 86 86
r 0.5812 0 1 cbr 210 ------- 0 0.0 1.0 84 84
+ 0.58125 0 1 cbr 210 ------- 0 0.0 1.0 155 155
- 0.58464 0 1 cbr 210 ------- 0 0.0 1.0 87 87
+ 0.585 0 1 cbr 210 ------- 0 0.0 1.0 156 156
r 0.58792 0 1 cbr 210 ------- 0 0.0 1.0 85 85
+ 0.58875 0 1 cbr 210 ------- 0 0.0 1.0 157 157
d 0.58875 0 1 cbr 210 ------- 0 0.0 1.0 157 157
- 0.59136 0 1 cbr 210 ------- 0 0.0 1.0 88 88
+ 0.5925 0 1 cbr 210 ------- 0 0.0 1.0 158 158
r 0.59464 0 1 cbr 210 ------- 0 0.0 1.0 86 86
+ 0.59625 0 1 cbr 210 ------- 0 0.0 1.0 159 159
d 0.59625 0 1 cbr 210 ------- 0 0.0 1.0 159 159
- 0.59808 0 1 cbr 210 ------- 0 0.0 1.0 89 89
+ 0.6 0 1 cbr 210 ------- 0 0.0 1.0 160 160
r 0.60136 0 1 cbr 210 ------- 0 0.0 1.0 87 87
+ 0.60375 0 1 cbr 210 ------- 0 0.0 1.0 161 161
d 0.60375 0 1 cbr 210 ------- 0 0.0 1.0 161 161
- 0.6048 0 1 cbr 210 ------- 0 0.0 1.0 90 90
+ 0.6075 0 1 cbr 210 ------- 0 0.0 1.0 162 162
r 0.60808 0 1 cbr 210 ------- 0 0.0 1.0 88 88
+ 0.61125 0 1 cbr 210 ------- 0 0.0 1.0 163 163
d 0.61125 0 1 cbr 210 ------- 0 0.0 1.0 163 163
- 0.61152 0 1 cbr 210 ------- 0 0.0 1.0 91 91
r 0.6148 0 1 cbr 210 ------- 0 0.0 1.0 89 89
+ 0.615 0 1 cbr 210 ------- 0 0.0 1.0 164 164
- 0.61824 0 1 cbr 210 ------- 0 0.0 1.0 92 92
+ 0.61875 0 1 cbr 210 ------- 0 0.0 1.0 165 165
r 0.62152 0 1 cbr 210 ------- 0 0.0 1.0 90 90
+ 0.6225 0 1 cbr 210 ------- 0 0.0 1.0 166 166
d 0.6225 0 1 cbr 210 ------- 0 0.0 1.0 166 166
- 0.62496 0 1 cbr 210 ------- 0 0.0 1.0 93 93
+ 0.62625 0 1 cbr 210 ------- 0 0.0 1.0 167 167
r 0.62824 0 1 cbr 210 ------- 0 0.0 1.0 91 91
+ 0.63 0 1 cbr 210 ------- 0 0.0 1.0 168 168
d 0.63 0 1 cbr 210 ------- 0 0.0 1.0 168 168
- 0.63168 0 1 cbr 210 ------- 0 0.0 1.0 94 94
+ 0.63375 0 1 cbr 210 ------- 0 0.0 1.0 169 169
r 0.63496 0 1 cbr 210 ------- 0 0.0 1.0 92 92
+ 0.6375 0 1 cbr 210 ------- 0 0.0 1.0 170 170
d 0.6375 0 1 cbr 210 ------- 0 0.0 1.0 170 170
- 0.6384 0 1 cbr 210 ------- 0 0.0 1.0 95 95
+ 0.64125 0 1 cbr 210 ------- 0 0.0 1.0 171 171
r 0.64168 0 1 cbr 210 ------- 0 0.0 1.0 93 93
+ 0.645 0 1 cbr 210 ------- 0 0.0 1.0 172 172
d 0.645 0 1 cbr 210 ------- 0 0.0 1.0 172 172
- 0.64512 0 1 cbr 210 ------- 0 0.0 1.0 96 96
r 0.6484 0 1 cbr 210 ------- 0 0.0 1.0 94 94
+ 0.64875 0 1 cbr 210 ------- 0 0.0 1.0 173 173
- 0.65184 0 1 cbr 210 ------- 0 0.0 1.0 97 97
+ 0.6525 0 1 cbr 210 ------- 0 0.0 1.0 174 174
r 0.65512 0 1 cbr 210 ------- 0 0.0 1.0 95 95
+ 0.65625 0 1 cbr 210 ------- 0 0.0 1.0 175 175
d 0.65625 0 1 cbr 210 ------- 0 0.0 1.0 175 175
- 0.65856 0 1 cbr 210 ------- 0 0.0 1.0 98 98
+ 0.66 0 1 cbr 210 ------- 0 0.0 1.0 176 176
r 0.66184 0 1 cbr 210 ------- 0 0.0 1.0 96 96
+ 0.66375 0 1 cbr 210 ------- 0 0.0 1.0 177 177
d 0.66375 0 1 cbr 210 ------- 0 0.0 1.0 177 177
- 0.66528 0 1 cbr 210 ------- 0 0.0 1.0 99 99
+ 0.6675 0 1 cbr 210 ------- 0 0.0 1.0 178 178
r 0.66856 0 1 cbr 210 ------- 0 0.0 1.0 97 97
+ 0.67125 0 1 cbr 210 ------- 0 0.0 1.0 179 179
d 0.67125 0 1 cbr 210 ------- 0 0.0 1.0 179 179
- 0.672 0 1 cbr 210 ------- 0 0.0 1.0 100 100
+ 0.675 0 1 cbr 210 ------- 0 0.0 1.0 180 180
r 0.67528 0 1 cbr 210 ------- 0 0.0 1.0 98 98
- 0.67872 0 1 cbr 210 ------- 0 0.0 1.0 101 101
+ 0.67875 0 1 cbr 210 ------- 0 0.0 1.0 181 181
r 0.682 0 1 cbr 210 ------- 0 0.0 1.0 99 99
+ 0.6825 0 1 cbr 210 ------- 0 0.0 1.0 182 182
d 0.6825 0 1 cbr 210 ------- 0 0.0 1.0 182 182
- 0.68544 0 1 cbr 210 ------- 0 0.0 1.0 102 102
+ 0.68625 0 1 cbr 210 ------- 0 0.0 1.0 183 183
r 0.68872 0 1 cbr 210 ------- 0 0.0 1.0 100 100
+ 0.69 0 1 cbr 210 ------- 0 0.0 1.0 184 184
d 0.69 0 1 cbr 210 ------- 0 0.0 1.0 184 184
- 0.69216 0 1 cbr 210 ------- 0 0.0 1.0 103 103
+ 0.69375 0 1 cbr 210 ------- 0 0.0 1.0 185 185
r 0.69544 0 1 cbr 210 ------- 0 0.0 1.0 101 101
+ 0.6975 0 1 cbr 210 ------- 0 0.0 1.0 186 186
d 0.6975 0 1 cbr 210 ------- 0 0.0 1.0 186 186
- 0.69888 0 1 cbr 210 ------- 0 0.0 1.0 104 104
+ 0.70125 0 1 cbr 210 ------- 0 0.0 1.0 187 187
r 0.70216 0 1 cbr 210 ------- 0 0.0 1.0 102 102
+ 0.705 0 1 cbr 210 ------- 0 0.0 1.0 188 188
d 0.705 0 1 cbr 210 ------- 0 0.0 1.0 188 188
- 0.7056 0 1 cbr 210 ------- 0 0.0 1.0 105 105
+ 0.70875 0 1 cbr 210 ------- 0 0.0 1.0 189 189
r 0.70888 0 1 cbr 210 ------- 0 0.0 1.0 103 103
- 0.71232 0 1 cbr 210 ------- 0 0.0 1.0 106 106
+ 0.7125 0 1 cbr 210 ------- 0 0.0 1.0 190 190
r 0.7156 0 1 cbr 210 ------- 0 0.0 1.0 104 104
+ 0.71625 0 1 cbr 210 ------- 0 0.0 1.0 191 191
d 0.71625 0 1 cbr 210 ------- 0 0.0 1.0 191 191
- 0.71904 0 1 cbr 210 ------- 0 0.0 1.0 107 107
+ 0.72 0 1 cbr 210 ------- 0 0.0 1.0 192 192
r 0.72232 0 1 cbr 210 ------- 0 0.0 1.0 105 105
+ 0.72375 0 1 cbr 210 ------- 0 0.0 1.0 193 193
d 0.72375 0 1 cbr 210 ------- 0 0.0 1.0 193 193
- 0.72576 0 1 cbr 210 ------- 0 0.0 1.0 108 108
+ 0.7275 0 1 cbr 210 ------- 0 0.0 1.0 194 194
r 0.72904 0 1 cbr 210 ------- 0 0.0 1.0 106 106
+ 0.73125 0 1 cbr 210 ------- 0 0.0 1.0 195 195
d 0.73125 0 1 cbr 210 ------- 0 0.0 1.0 195 195
- 0.73248 0 1 cbr 210 ------- 0 0.0 1.0 109 109
+ 0.735 0 1 cbr 210 ------- 0 0.0 1.0 196 196
r 0.73576 0 1 cbr 210 ------- 0 0.0 1.0 107 107
+ 0.73875 0 1 cbr 210 ------- 0 0.0 1.0 197 197
d 0.73875 0 1 cbr 210 ------- 0 0.0 1.0 197 197
- 0.7392 0 1 cbr 210 ------- 0 0.0 1.0 110 110
r 0.74248 0 1 cbr 210 ------- 0 0.0 1.0 108 108
+ 0.7425 0 1 cbr 210 ------- 0 0.0 1.0 198 198
- 0.74592 0 1 cbr 210 ------- 0 0.0 1.0 112 112
+ 0.74625 0 1 cbr 210 ------- 0 0.0 1.0 199 199
r 0.7492 0 1 cbr 210 ------- 0 0.0 1.0 109 109
+ 0.75 0 1 cbr 210 ------- 0 0.0 1.0 200 200
d 0.75 0 1 cbr 210 ------- 0 0.0 1.0 200 200
- 0.75264 0 1 cbr 210 ------- 0 0.0 1.0 113 113
+ 0.75375 0 1 cbr 210 ------- 0 0.0 1.0 201 201
r 0.75592 0 1 cbr 210 ------- 0 0.0 1.0 110 110
+ 0.7575 0 1 cbr 210 ------- 0 0.0 1.0 202 202
d 0.7575 0 1 cbr 210 ------- 0 0.0 1.0 202 202
- 0.75936 0 1 cbr 210 ------- 0 0.0 1.0 115 115
+ 0.76125 0 1 cbr 210 ------- 0 0.0 1.0 203 203
r 0.76264 0 1 cbr 210 ------- 0 0.0 1.0 112 112
+ 0.765 0 1 cbr 210 ------- 0 0.0 1.0 204 204
d 0.765 0 1 cbr 210 ------- 0 0.0 1.0 204 204
- 0.76608 0 1 cbr 210 ------- 0 0.0 1.0 117 117
+ 0.76875 0 1 cbr 210 ------- 0 0.0 1.0 205 205
r 0.76936 0 1 cbr 210 ------- 0 0.0 1.0 113 113
+ 0.7725 0 1 cbr 210 ------- 0 0.0 1.0 206 206
d 0.7725 0 1 cbr 210 ------- 0 0.0 1.0 206 206
- 0.7728 0 1 cbr 210 ------- 0 0.0 1.0 119 119
r 0.77608 0 1 cbr 210 ------- 0 0.0 1.0 115 115
+ 0.77625 0 1 cbr 210 ------- 0 0.0 1.0 207 207
- 0.77952 0 1 cbr 210 ------- 0 0.0 1.0 121 121
+ 0.78 0 1 cbr 210 ------- 0 0.0 1.0 208 208
r 0.7828 0 1 cbr 210 ------- 0 0.0 1.0 117 117
+ 0.78375 0 1 cbr 210 ------- 0 0.0 1.0 209 209
d 0.78375 0 1 cbr 210 ------- 0 0.0 1.0 209 209
- 0.78624 0 1 cbr 210 ------- 0 0.0 1.0 122 122
+ 0.7875 0 1 cbr 210 ------- 0 0.0 1.0 210 210
r 0.78952 0 1 cbr 210 ------- 0 0.0 1.0 119 119
+ 0.79125 0 1 cbr 210 ------- 0 0.0 1.0 211 211
d 0.79125 0 1 cbr 210 ------- 0 0.0 1.0 211 211
- 0.79296 0 1 cbr 210 ------- 0 0.0 1.0 124 124
+ 0.795 0 1 cbr 210 ------- 0 0.0 1.0 212 212
r 0.79624 0 1 cbr 210 ------- 0 0.0 1.0 121 121
+ 0.79875 0 1 cbr 210 ------- 0 0.0 1.0 213 213
d 0.79875 0 1 cbr 210 ------- 0 0.0 1.0 213 213
- 0.79968 0 1 cbr 210 ------- 0 0.0 1.0 126 126
+ 0.8025 0 1 cbr 210 ------- 0 0.0 1.0 214 214
r 0.80296 0 1 cbr 210 ------- 0 0.0 1.0 122 122
+ 0.80625 0 1 cbr 210 ------- 0 0.0 1.0 215 215
d 0.80625 0 1 cbr 210 ------- 0 0.0 1.0 215 215
- 0.8064 0 1 cbr 210 ------- 0 0.0 1.0 128 128
r 0.80968 0 1 cbr 210 ------- 0 0.0 1.0 124 124
+ 0.81 0 1 cbr 210 ------- 0 0.0 1.0 216 216
- 0.81312 0 1 cbr 210 ------- 0 0.0 1.0 130 130
+ 0.81375 0 1 cbr 210 ------- 0 0.0 1.0 217 217
r 0.8164 0 1 cbr 210 ------- 0 0.0 1.0 126 126
+ 0.8175 0 1 cbr 210 ------- 0 0.0 1.0 218 218
d 0.8175 0 1 cbr 210 ------- 0 0.0 1.0 218 218
- 0.81984 0 1 cbr 210 ------- 0 0.0 1.0 131 131
+ 0.82125 0 1 cbr 210 ------- 0 0.0 1.0 219 219
r 0.82312 0 1 cbr 210 ------- 0 0.0 1.0 128 128
+ 0.825 0 1 cbr 210 ------- 0 0.0 1.0 220 220
d 0.825 0 1 cbr 210 ------- 0 0.0 1.0 220 220
- 0.82656 0 1 cbr 210 ------- 0 0.0 1.0 133 133
+ 0.82875 0 1 cbr 210 ------- 0 0.0 1.0 221 221
r 0.82984 0 1 cbr 210 ------- 0 0.0 1.0 130 130
+ 0.8325 0 1 cbr 210 ------- 0 0.0 1.0 222 222
d 0.8325 0 1 cbr 210 ------- 0 0.0 1.0 222 222
- 0.83328 0 1 cbr 210 ------- 0 0.0 1.0 135 135
+ 0.83625 0 1 cbr 210 ------- 0 0.0 1.0 223 223
r 0.83656 0 1 cbr 210 ------- 0 0.0 1.0 131 131
- 0.84 0 1 cbr 210 ------- 0 0.0 1.0 137 137
+ 0.84 0 1 cbr 210 ------- 0 0.0 1.0 224 224
r 0.84328 0 1 cbr 210 ------- 0 0.0 1.0 133 133
+ 0.84375 0 1 cbr 210 ------- 0 0.0 1.0 225 225
d 0.84375 0 1 cbr 210 ------- 0 0.0 1.0 225 225
- 0.84672 0 1 cbr 210 ------- 0 0.0 1.0 138 138
+ 0.8475 0 1 cbr 210 ------- 0 0.0 1.0 226 226
r 0.85 0 1 cbr 210 ------- 0 0.0 1.0 135 135
+ 0.85125 0 1 cbr 210 ------- 0 0.0 1.0 227 227
d 0.85125 0 1 cbr 210 ------- 0 0.0 1.0 227 227
- 0.85344 0 1 cbr 210 ------- 0 0.0 1.0 140 140
+ 0.855 0 1 cbr 210 ------- 0 0.0 1.0 228 228
r 0.85672 0 1 cbr 210 ------- 0 0.0 1.0 137 137
+ 0.85875 0 1 cbr 210 ------- 0 0.0 1.0 229 229
d 0.85875 0 1 cbr 210 ------- 0 0.0 1.0 229 229
- 0.86016 0 1 cbr 210 ------- 0 0.0 1.0 142 142
+ 0.8625 0 1 cbr 210 ------- 0 0.0 1.0 230 230
r 0.86344 0 1 cbr 210 ------- 0 0.0 1.0 138 138
+ 0.86625 0 1 cbr 210 ------- 0 0.0 1.0 231 231
d 0.86625 0 1 cbr 210 ------- 0 0.0 1.0 231 231
- 0.86688 0 1 cbr 210 ------- 0 0.0 1.0 144 144
+ 0.87 0 1 cbr 210 ------- 0 0.0 1.0 232 232
r 0.87016 0 1 cbr 210 ------- 0 0.0 1.0 140 140
- 0.8736 0 1 cbr 210 ------- 0 0.0 1.0 146 146
+ 0.87375 0 1 cbr 210 ------- 0 0.0 1.0 233 233
r 0.87688 0 1 cbr 210 ------- 0 0.0 1.0 142 142
+ 0.8775 0 1 cbr 210 ------- 0 0.0 1.0 234 234
d 0.8775 0 1 cbr 210 ------- 0 0.0 1.0 234 234
- 0.88032 0 1 cbr 210 ------- 0 0.0 1.0 147 147
+ 0.88125 0 1 cbr 210 ------- 0 0.0 1.0 235 235
r 0.8836 0 1 cbr 210 ------- 0 0.0 1.0 144 144
+ 0.885 0 1 cbr 210 ------- 0 0.0 1.0 236 236
d 0.885 0 1 cbr 210 ------- 0 0.0 1.0 236 236
- 0.88704 0 1 cbr 210 ------- 0 0.0 1.0 149 149
+ 0.88875 0 1 cbr 210 ------- 0 0.0 1.0 237 237
r 0.89032 0 1 cbr 210 ------- 0 0.0 1.0 146 146
+ 0.8925 0 1 cbr 210 ------- 0 0.0 1.0 238 238
d 0.8925 0 1 cbr 210 ------- 0 0.0 1.0 238 238
- 0.89376 0 1 cbr 210 ------- 0 0.0 1.0 151 151
+ 0.89625 0 1 cbr 210 ------- 0 0.0 1.0 239 239
r 0.89704 0 1 cbr 210 ------- 0 0.0 1.0 147 147
+ 0.9 0 1 cbr 210 ------- 0 0.0 1.0 240 240
d 0.9 0 1 cbr 210 ------- 0 0.0 1.0 240 240
- 0.90048 0 1 cbr 210 ------- 0 0.0 1.0 153 153
+ 0.90375 0 1 cbr 210 ------- 0 0.0 1.0 241 241
r 0.90376 0 1 cbr 210 ------- 0 0.0 1.0 149 149
- 0.9072 0 1 cbr 210 ------- 0 0.0 1.0 155 155
+ 0.9075 0 1 cbr 210 ------- 0 0.0 1.0 242 242
r 0.91048 0 1 cbr 210 ------- 0 0.0 1.0 151 151
+ 0.91125 0 1 cbr 210 ------- 0 0.0 1.0 243 243
d 0.91125 0 1 cbr 210 ------- 0 0.0 1.0 243 243
- 0.91392 0 1 cbr 210 ------- 0 0.0 1.0 156 156
+ 0.915 0 1 cbr 210 ------- 0 0.0 1.0 244 244
r 0.9172 0 1 cbr 210 ------- 0 0.0 1.0 153 153
+ 0.91875 0 1 cbr 210 ------- 0 0.0 1.0 245 245
d 0.91875 0 1 cbr 210 ------- 0 0.0 1.0 245 245
- 0.92064 0 1 cbr 210 ------- 0 0.0 1.0 158 158
+ 0.9225 0 1 cbr 210 ------- 0 0.0 1.0 246 246
r 0.92392 0 1 cbr 210 ------- 0 0.0 1.0 155 155
+ 0.92625 0 1 cbr 210 ------- 0 0.0 1.0 247 247
d 0.92625 0 1 cbr 210 ------- 0 0.0 1.0 247 247
- 0.92736 0 1 cbr 210 ------- 0 0.0 1.0 160 160
+ 0.93 0 1 cbr 210 ------- 0 0.0 1.0 248 248
r 0.93064 0 1 cbr 210 ------- 0 0.0 1.0 156 156
+ 0.93375 0 1 cbr 210 ------- 0 0.0 1.0 249 249
d 0.93375 0 1 cbr 210 ------- 0 0.0 1.0 249 249
- 0.93408 0 1 cbr 210 ------- 0 0.0 1.0 162 162
r 0.93736 0 1 cbr 210 ------- 0 0.0 1.0 158 158
+ 0.9375 0 1 cbr 210 ------- 0 0.0 1.0 250 250
- 0.9408 0 1 cbr 210 ------- 0 0.0 1.0 164 164
+ 0.94125 0 1 cbr 210 ------- 0 0.0 1.0 251 251
r 0.94408 0 1 cbr 210 ------- 0 0.0 1.0 160 160
+ 0.945 0 1 cbr 210 ------- 0 0.0 1.0 252 252
d 0.945 0 1 cbr 210 ------- 0 0.0 1.0 252 252
- 0.94752 0 1 cbr 210 ------- 0 0.0 1.0 165 165
+ 0.94875 0 1 cbr 210 ------- 0 0.0 1.0 253 253
r 0.9508 0 1 cbr 210 ------- 0 0.0 1.0 162 162
+ 0.9525 0 1 cbr 210 ------- 0 0.0 1.0 254 254
d 0.9525 0 1 cbr 210 ------- 0 0.0 1.0 254 254
- 0.95424 0 1 cbr 210 ------- 0 0.0 1.0 167 167
+ 0.95625 0 1 cbr 210 ------- 0 0.0 1.0 255 255
r 0.95752 0 1 cbr 210 ------- 0 0.0 1.0 164 164
+ 0.96 0 1 cbr 210 ------- 0 0.0 1.0 256 256
d 0.96 0 1 cbr 210 ------- 0 0.0 1.0 256 256
- 0.96096 0 1 cbr 210 ------- 0 0.0 1.0 169 169
+ 0.96375 0 1 cbr 210 ------- 0 0.0 1.0 257 257
r 0.96424 0 1 cbr 210 ------- 0 0.0 1.0 165 165
+ 0.9675 0 1 cbr 210 ------- 0 0.0 1.0 258 258
d 0.9675 0 1 cbr 210 ------- 0 0.0 1.0 258 258
- 0.96768 0 1 cbr 210 ------- 0 0.0 1.0 171 171
r 0.97096 0 1 cbr 210 ------- 0 0.0 1.0 167 167
+ 0.97125 0 1 cbr 210 ------- 0 0.0 1.0 259 259
- 0.9744 0 1 cbr 210 ------- 0 0.0 1.0 173 173
+ 0.975 0 1 cbr 210 ------- 0 0.0 1.0 260 260
r 0.97768 0 1 cbr 210 ------- 0 0.0 1.0 169 169
+ 0.97875 0 1 cbr 210 ------- 0 0.0 1.0 261 261
d 0.97875 0 1 cbr 210 ------- 0 0.0 1.0 261 261
- 0.98112 0 1 cbr 210 ------- 0 0.0 1.0 174 174
+ 0.9825 0 1 cbr 210 ------- 0 0.0 1.0 262 262
r 0.9844 0 1 cbr 210 ------- 0 0.0 1.0 171 171
+ 0.98625 0 1 cbr 210 ------- 0 0.0 1.0 263 263
d 0.98625 0 1 cbr 210 ------- 0 0.0 1.0 263 263
- 0.98784 0 1 cbr 210 ------- 0 0.0 1.0 176 176
+ 0.99 0 1 cbr 210 ------- 0 0.0 1.0 264 264
r 0.99112 0 1 cbr 210 ------- 0 0.0 1.0 173 173
+ 0.99375 0 1 cbr 210 ------- 0 0.0 1.0 265 265
d 0.99375 0 1 cbr 210 ------- 0 0.0 1.0 265 265
- 0.99456 0 1 cbr 210 ------- 0 0.0 1.0 178 178
+ 0.9975 0 1 cbr 210 ------- 0 0.0 1.0 266 266
r 0.99784 0 1 cbr 210 ------- 0 0.0 1.0 174 174
+ 1.00125 0 1 cbr 210 ------- 0 0.0 1.0 267 267
d 1.00125 0 1 cbr 210 ------- 0 0.0 1.0 267 267
- 1.00128 0 1 cbr 210 ------- 0 0.0 1.0 180 180
r 1.00456 0 1 cbr 210 ------- 0 0.0 1.0 176 176
+ 1.005 0 1 cbr 210 ------- 0 0.0 1.0 268 268
- 1.008 0 1 cbr 210 ------- 0 0.0 1.0 181 181
+ 1.00875 0 1 cbr 210 ------- 0 0.0 1.0 269 269
r 1.01128 0 1 cbr 210 ------- 0 0.0 1.0 178 178
+ 1.0125 0 1 cbr 210 ------- 0 0.0 1.0 270 270
d 1.0125 0 1 cbr 210 ------- 0 0.0 1.0 270 270
- 1.01472 0 1 cbr 210 ------- 0 0.0 1.0 183 183
+ 1.01625 0 1 cbr 210 ------- 0 0.0 1.0 271 271
r 1.018 0 1 cbr 210 ------- 0 0.0 1.0 180 180
+ 1.02 0 1 cbr 210 ------- 0 0.0 1.0 272 272