+ 0 0 1 cbr 210 ------- 0 0.0 1.0 0 0
- 0 0 1 cbr 210 ------- 0 0.0 1.0 0 0
+ 0.00375 0 1 cbr 210 ------- 0 0.0 1.0 1 1
+ 0.0075 0 1 cbr 210 ------- 0 0.0 1.0 2 2
+ 0.01125 0 1 cbr 210 ------- 0 0.0 1.0 3 3
+ 0.015 0 1 cbr 210 ------- 0 0.0 1.0 4 4
- 0.0168 0 1 cbr 210 ------- 0 0.0 1.0 1 1
+ 0.01875 0 1 cbr 210 ------- 0 0.0 1.0 5 5
+ 0.0225 0 1 cbr 210 ------- 0 0.0 1.0 6 6
+ 0.02625 0 1 cbr 210 ------- 0 0.0 1.0 7 7
r 0.0268 0 1 cbr 210 ------- 0 0.0 1.0 0 0
+ 0.03 0 1 cbr 210 ------- 0 0.0 1.0 8 8
- 0.0336 0 1 cbr 210 ------- 0 0.0 1.0 2 2
+ 0.03375 0 1 cbr 210 ------- 0 0.0 1.0 9 9
+ 0.0375 0 1 cbr 210 ------- 0 0.0 1.0 10 10
+ 0.04125 0 1 cbr 210 ------- 0 0.0 1.0 11 11
r 0.0436 0 1 cbr 210 ------- 0 0.0 1.0 1 1
+ 0.045 0 1 cbr 210 ------- 0 0.0 1.0 12 12
+ 0.04875 0 1 cbr 210 ------- 0 0.0 1.0 13 13
- 0.0504 0 1 cbr 210 ------- 0 0.0 1.0 3 3
+ 0.0525 0 1 cbr 210 ------- 0 0.0 1.0 14 14
+ 0.05625 0 1 cbr 210 ------- 0 0.0 1.0 15 15
+ 0.06 0 1 cbr 210 ------- 0 0.0 1.0 16 16
r 0.0604 0 1 cbr 210 ------- 0 0.0 1.0 2 2
+ 0.06375 0 1 cbr 210 ------- 0 0.0 1.0 17 17
- 0.0672 0 1 cbr 210 ------- 0 0.0 1.0 4 4
+ 0.0675 0 1 cbr 210 ------- 0 0.0 1.0 18 18
+ 0.07125 0 1 cbr 210 ------- 0 0.0 1.0 19 19
+ 0.075 0 1 cbr 210 ------- 0 0.0 1.0 20 20
r 0.0772 0 1 cbr 210 ------- 0 0.0 1.0 3 3
+ 0.07875 0 1 cbr 210 ------- 0 0.0 1.0 21 21
+ 0.0825 0 1 cbr 210 ------- 0 0.0 1.0 22 22
- 0.084 0 1 cbr 210 ------- 0 0.0 1.0 5 5
+ 0.08625 0 1 cbr 210 ------- 0 0.0 1.0 23 23
+ 0.09 0 1 cbr 210 ------- 0 0.0 1.0 24 24
+ 0.09375 0 1 cbr 210 ------- 0 0.0 1.0 25 25
r 0.094 0 1 cbr 210 ------- 0 0.0 1.0 4 4
+ 0.0975 0 1 cbr 210 ------- 0 0.0 1.0 26 26
- 0.1008 0 1 cbr 210 ------- 0 0.0 1.0 6 6
+ 0.10125 0 1 cbr 210 ------- 0 0.0 1.0 27 27
+ 0.105 0 1 cbr 210 ------- 0 0.0 1.0 28 28
+ 0.10875 0 1 cbr 210 ------- 0 0.0 1.0 29 29
r 0.1108 0 1 cbr 210 ------- 0 0.0 1.0 5 5
+ 0.1125 0 1 cbr 210 ------- 0 0.0 1.0 30 30
+ 0.11625 0 1 cbr 210 ------- 0 0.0 1.0 31 31
- 0.1176 0 1 cbr 210 ------- 0 0.0 1.0 7 7
+ 0.12 0 1 cbr 210 ------- 0 0.0 1.0 32 32
+ 0.12375 0 1 cbr 210 ------- 0 0.0 1.0 33 33
+ 0.1275 0 1 cbr 210 ------- 0 0.0 1.0 34 34
r 0.1276 0 1 cbr 210 ------- 0 0.0 1.0 6 6
+ 0.13125 0 1 cbr 210 ------- 0 0.0 1.0 35 35
- 0.1344 0 1 cbr 210 ------- 0 0.0 1.0 8 8
+ 0.135 0 1 cbr 210 ------- 0 0.0 1.0 36 36
+ 0.13875 0 1 cbr 210 ------- 0 0.0 1.0 37 37
+ 0.1425 0 1 cbr 210 ------- 0 0.0 1.0 38 38
r 0.1444 0 1 cbr 210 ------- 0 0.0 1.0 7 7
+ 0.14625 0 1 cbr 210 ------- 0 0.0 1.0 39 39
+ 0.15 0 1 cbr 210 ------- 0 0.0 1.0 40 40
- 0.1512 0 1 cbr 210 ------- 0 0.0 1.0 9 9
+ 0.15375 0 1 cbr 210 ------- 0 0.0 1.0 41 41
+ 0.1575 0 1 cbr 210 ------- 0 0.0 1.0 42 42
r 0.1612 0 1 cbr 210 ------- 0 0.0 1.0 8 8
+ 0.16125 0 1 cbr 210 ------- 0 0.0 1.0 43 43
+ 0.165 0 1 cbr 210 ------- 0 0.0 1.0 44 44
- 0.168 0 1 cbr 210 ------- 0 0.0 1.0 10 10
+ 0.16875 0 1 cbr 210 ------- 0 0.0 1.0 45 45
+ 0.1725 0 1 cbr 210 ------- 0 0.0 1.0 46 46
+ 0.17625 0 1 cbr 210 ------- 0 0.0 1.0 47 47
r 0.178 0 1 cbr 210 ------- 0 0.0 1.0 9 9
+ 0.18 0 1 cbr 210 ------- 0 0.0 1.0 48 48
+ 0.18375 0 1 cbr 210 ------- 0 0.0 1.0 49 49
- 0.1848 0 1 cbr 210 ------- 0 0.0 1.0 11 11
+ 0.1875 0 1 cbr 210 ------- 0 0.0 1.0 50 50
+ 0.19125 0 1 cbr 210 ------- 0 0.0 1.0 51 51
r 0.1948 0 1 cbr 210 ------- 0 0.0 1.0 10 10
+ 0.195 0 1 cbr 210 ------- 0 0.0 1.0 52 52
+ 0.19875 0 1 cbr 210 ------- 0 0.0 1.0 53 53
- 0.2016 0 1 cbr 210 ------- 0 0.0 1.0 12 12
+ 0.2025 0 1 cbr 210 ------- 0 0.0 1.0 54 54
+ 0.20625 0 1 cbr 210 ------- 0 0.0 1.0 55 55
+ 0.21 0 1 cbr 210 ------- 0 0.0 1.0 56 56
r 0.2116 0 1 cbr 210 ------- 0 0.0 1.0 11 11
+ 0.21375 0 1 cbr 210 ------- 0 0.0 1.0 57 57
+ 0.2175 0 1 cbr 210 ------- 0 0.0 1.0 58 58
- 0.2184 0 1 cbr 210 ------- 0 0.0 1.0 13 13
+ 0.22125 0 1 cbr 210 ------- 0 0.0 1.0 59 59
+ 0.225 0 1 cbr 210 ------- 0 0.0 1.0 60 60
r 0.2284 0 1 cbr 210 ------- 0 0.0 1.0 12 12
+ 0.22875 0 1 cbr 210 ------- 0 0.0 1.0 61 61
+ 0.2325 0 1 cbr 210 ------- 0 0.0 1.0 62 62
- 0.2352 0 1 cbr 210 ------- 0 0.0 1.0 14 14
+ 0.23625 0 1 cbr 210 ------- 0 0.0 1.0 63 63
+ 0.24 0 1 cbr 210 ------- 0 0.0 1.0 64 64
d 0.24 0 1 cbr 210 ------- 0 0.0 1.0 64 64
+ 0.24375 0 1 cbr 210 ------- 0 0.0 1.0 65 65
d 0.24375 0 1 cbr 210 ------- 0 0.0 1.0 65 65
r 0.2452 0 1 cbr 210 ------- 0 0.0 1.0 13 13
+ 0.2475 0 1 cbr 210 ------- 0 0.0 1.0 66 66
d 0.2475 0 1 cbr 210 ------- 0 0.0 1.0 66 66
+ 0.25125 0 1 cbr 210 ------- 0 0.0 1.0 67 67
d 0.25125 0 1 cbr 210 ------- 0 0.0 1.0 67 67
- 0.252 0 1 cbr 210 ------- 0 0.0 1.0 15 15
+ 0.255 0 1 cbr 210 ------- 0 0.0 1.0 68 68
+ 0.25875 0 1 cbr 210 ------- 0 0.0 1.0 69 69
d 0.25875 0 1 cbr 210 ------- 0 0.0 1.0 69 69
r 0.262 0 1 cbr 210 ------- 0 0.0 1.0 14 14
+ 0.2625 0 1 cbr 210 ------- 0 0.0 1.0 70 70
d 0.2625 0 1 cbr 210 ------- 0 0.0 1.0 70 70
+ 0.26625 0 1 cbr 210 ------- 0 0.0 1.0 71 71
d 0.26625 0 1 cbr 210 ------- 0 0.0 1.0 71 71
- 0.2688 0 1 cbr 210 ------- 0 0.0 1.0 16 16
+ 0.27 0 1 cbr 210 ------- 0 0.0 1.0 72 72
+ 0.27375 0 1 cbr 210 ------- 0 0.0 1.0 73 73
d 0.27375 0 1 cbr 210 ------- 0 0.0 1.0 73 73
+ 0.2775 0 1 cbr 210 ------- 0 0.0 1.0 74 74
d 0.2775 0 1 cbr 210 ------- 0 0.0 1.0 74 74
r 0.2788 0 1 cbr 210 ------- 0 0.0 1.0 15 15
+ 0.28125 0 1 cbr 210 ------- 0 0.0 1.0 75 75
d 0.28125 0 1 cbr 210 ------- 0 0.0 1.0 75 75
+ 0.285 0 1 cbr 210 ------- 0 0.0 1.0 76 76
d 0.285 0 1 cbr 210 ------- 0 0.0 1.0 76 76
- 0.2856 0 1 cbr 210 ------- 0 0.0 1.0 17 17
+ 0.28875 0 1 cbr 210 ------- 0 0.0 1.0 77 77
+ 0.2925 0 1 cbr 210 ------- 0 0.0 1.0 78 78
d 0.2925 0 1 cbr 210 ------- 0 0.0 1.0 78 78
r 0.2956 0 1 cbr 210 ------- 0 0.0 1.0 16 16
+ 0.29625 0 1 cbr 210 ------- 0 0.0 1.0 79 79
d 0.29625 0 1 cbr 210 ------- 0 0.0 1.0 79 79
+ 0.3 0 1 cbr 210 ------- 0 0.0 1.0 80 80
d 0.3 0 1 cbr 210 ------- 0 0.0 1.0 80 80
- 0.3024 0 1 cbr 210 ------- 0 0.0 1.0 18 18
+ 0.30375 0 1 cbr 210 ------- 0 0.0 1.0 81 81
+ 0.3075 0 1 cbr 210 ------- 0 0.0 1.0 82 82
d 0.3075 0 1 cbr 210 ------- 0 0.0 1.0 82 82
+ 0.31125 0 1 cbr 210 ------- 0 0.0 1.0 83 83
d 0.31125 0 1 cbr 210 ------- 0 0.0 1.0 83 83
r 0.3124 0 1 cbr 210 ------- 0 0.0 1.0 17 17
+ 0.315 0 1 cbr 210 ------- 0 0.0 1.0 84 84
d 0.315 0 1 cbr 210 ------- 0 0.0 1.0 84 84
+ 0.31875 0 1 cbr 210 ------- 0 0.0 1.0 85 85
d 0.31875 0 1 cbr 210 ------- 0 0.0 1.0 85 85
- 0.3192 0 1 cbr 210 ------- 0 0.0 1.0 19 19
+ 0.3225 0 1 cbr 210 ------- 0 0.0 1.0 86 86
+ 0.32625 0 1 cbr 210 ------- 0 0.0 1.0 87 87
d 0.32625 0 1 cbr 210 ------- 0 0.0 1.0 87 87
r 0.3292 0 1 cbr 210 ------- 0 0.0 1.0 18 18
+ 0.33 0 1 cbr 210 ------- 0 0.0 1.0 88 88
d 0.33 0 1 cbr 210 ------- 0 0.0 1.0 88 88
+ 0.33375 0 1 cbr 210 ------- 0 0.0 1.0 89 89
d 0.33375 0 1 cbr 210 ------- 0 0.0 1.0 89 89
- 0.336 0 1 cbr 210 ------- 0 0.0 1.0 20 20
+ 0.3375 0 1 cbr 210 ------- 0 0.0 1.0 90 90
+ 0.34125 0 1 cbr 210 ------- 0 0.0 1.0 91 91
d 0.34125 0 1 cbr 210 ------- 0 0.0 1.0 91 91
+ 0.345 0 1 cbr 210 ------- 0 0.0 1.0 92 92
d 0.345 0 1 cbr 210 ------- 0 0.0 1.0 92 92
r 0.346 0 1 cbr 210 ------- 0 0.0 1.0 19 19
+ 0.34875 0 1 cbr 210 ------- 0 0.0 1.0 93 93
d 0.34875 0 1 cbr 210 ------- 0 0.0 1.0 93 93
+ 0.3525 0 1 cbr 210 ------- 0 0.0 1.0 94 94
d 0.3525 0 1 cbr 210 ------- 0 0.0 1.0 94 94
- 0.3528 0 1 cbr 210 ------- 0 0.0 1.0 21 21
+ 0.35625 0 1 cbr 210 ------- 0 0.0 1.0 95 95
+ 0.36 0 1 cbr 210 ------- 0 0.0 1.0 96 96
d 0.36 0 1 cbr 210 ------- 0 0.0 1.0 96 96
r 0.3628 0 1 cbr 210 ------- 0 0.0 1.0 20 20
+ 0.36375 0 1 cbr 210 ------- 0 0.0 1.0 97 97
d 0.36375 0 1 cbr 210 ------- 0 0.0 1.0 97 97
+ 0.3675 0 1 cbr 210 ------- 0 0.0 1.0 98 98
d 0.3675 0 1 cbr 210 ------- 0 0.0 1.0 98 98
- 0.3696 0 1 cbr 210 ------- 0 0.0 1.0 22 22
+ 0.37125 0 1 cbr 210 ------- 0 0.0 1.0 99 99
+ 0.375 0 1 cbr 210 ------- 0 0.0 1.0 100 100
d 0.375 0 1 cbr 210 ------- 0 0.0 1.0 100 100
+ 0.37875 0 1 cbr 210 ------- 0 0.0 1.0 101 101
d 0.37875 0 1 cbr 210 ------- 0 0.0 1.0 101 101
r 0.3796 0 1 cbr 210 ------- 0 0.0 1.0 21 21
+ 0.3825 0 1 cbr 210 ------- 0 0.0 1.0 102 102
d 0.3825 0 1 cbr 210 ------- 0 0.0 1.0 102 102
+ 0.38625 0 1 cbr 210 ------- 0 0.0 1.0 103 103
d 0.38625 0 1 cbr 210 ------- 0 0.0 1.0 103 103
- 0.3864 0 1 cbr 210 ------- 0 0.0 1.0 23 23
+ 0.39 0 1 cbr 210 ------- 0 0.0 1.0 104 104
+ 0.39375 0 1 cbr 210 ------- 0 0.0 1.0 105 105
d 0.39375 0 1 cbr 210 ------- 0 0.0 1.0 105 105
r 0.3964 0 1 cbr 210 ------- 0 0.0 1.0 22 22
+ 0.3975 0 1 cbr 210 ------- 0 0.0 1.0 106 106
d 0.3975 0 1 cbr 210 ------- 0 0.0 1.0 106 106
+ 0.40125 0 1 cbr 210 ------- 0 0.0 1.0 107 107
d 0.40125 0 1 cbr 210 ------- 0 0.0 1.0 107 107
- 0.4032 0 1 cbr 210 ------- 0 0.0 1.0 24 24
+ 0.405 0 1 cbr 210 ------- 0 0.0 1.0 108 108
+ 0.40875 0 1 cbr 210 ------- 0 0.0 1.0 109 109
d 0.40875 0 1 cbr 210 ------- 0 0.0 1.0 109 109
+ 0.4125 0 1 cbr 210 ------- 0 0.0 1.0 110 110
d 0.4125 0 1 cbr 210 ------- 0 0.0 1.0 110 110
r 0.4132 0 1 cbr 210 ------- 0 0.0 1.0 23 23
+ 0.41625 0 1 cbr 210 ------- 0 0.0 1.0 111 111
d 0.41625 0 1 cbr 210 ------- 0 0.0 1.0 111 111
+ 0.42 0 1 cbr 210 ------- 0 0.0 1.0 112 112
d 0.42 0 1 cbr 210 ------- 0 0.0 1.0 112 112
- 0.42 0 1 cbr 210 ------- 0 0.0 1.0 25 25
+ 0.42375 0 1 cbr 210 ------- 0 0.0 1.0 113 113
+ 0.4275 0 1 cbr 210 ------- 0 0.0 1.0 114 114
d 0.4275 0 1 cbr 210 ------- 0 0.0 1.0 114 114
r 0.43 0 1 cbr 210 ------- 0 0.0 1.0 24 24
+ 0.43125 0 1 cbr 210 ------- 0 0.0 1.0 115 115
d 0.43125 0 1 cbr 210 ------- 0 0.0 1.0 115 115
+ 0.435 0 1 cbr 210 ------- 0 0.0 1.0 116 116
d 0.435 0 1 cbr 210 ------- 0 0.0 1.0 116 116
- 0.4368 0 1 cbr 210 ------- 0 0.0 1.0 26 26
+ 0.43875 0 1 cbr 210 ------- 0 0.0 1.0 117 117
+ 0.4425 0 1 cbr 210 ------- 0 0.0 1.0 118 118
d 0.4425 0 1 cbr 210 ------- 0 0.0 1.0 118 118
+ 0.44625 0 1 cbr 210 ------- 0 0.0 1.0 119 119
d 0.44625 0 1 cbr 210 ------- 0 0.0 1.0 119 119
r 0.4468 0 1 cbr 210 ------- 0 0.0 1.0 25 25
+ 0.45 0 1 cbr 210 ------- 0 0.0 1.0 120 120
d 0.45 0 1 cbr 210 ------- 0 0.0 1.0 120 120
- 0.4536 0 1 cbr 210 ------- 0 0.0 1.0 27 27
+ 0.45375 0 1 cbr 210 ------- 0 0.0 1.0 121 121
+ 0.4575 0 1 cbr 210 ------- 0 0.0 1.0 122 122
d 0.4575 0 1 cbr 210 ------- 0 0.0 1.0 122 122
+ 0.46125 0 1 cbr 210 ------- 0 0.0 1.0 123 123
d 0.46125 0 1 cbr 210 ------- 0 0.0 1.0 123 123
r 0.4636 0 1 cbr 210 ------- 0 0.0 1.0 26 26
+ 0.465 0 1 cbr 210 ------- 0 0.0 1.0 124 124
d 0.465 0 1 cbr 210 ------- 0 0.0 1.0 124 124
+ 0.46875 0 1 cbr 210 ------- 0 0.0 1.0 125 125
d 0.46875 0 1 cbr 210 ------- 0 0.0 1.0 125 125
- 0.4704 0 1 cbr 210 ------- 0 0.0 1.0 28 28
+ 0.4725 0 1 cbr 210 ------- 0 0.0 1.0 126 126
+ 0.47625 0 1 cbr 210 ------- 0 0.0 1.0 127 127
d 0.47625 0 1 cbr 210 ------- 0 0.0 1.0 127 127
+ 0.48 0 1 cbr 210 ------- 0 0.0 1.0 128 128
d 0.48 0 1 cbr 210 ------- 0 0.0 1.0 128 128
r 0.4804 0 1 cbr 210 ------- 0 0.0 1.0 27 27
+ 0.48375 0 1 cbr 210 ------- 0 0.0 1.0 129 129
d 0.48375 0 1 cbr 210 ------- 0 0.0 1.0 129 129
- 0.4872 0 1 cbr 210 ------- 0 0.0 1.0 29 29
+ 0.4875 0 1 cbr 210 ------- 0 0.0 1.0 130 130
+ 0.49125 0 1 cbr 210 ------- 0 0.0 1.0 131 131
d 0.49125 0 1 cbr 210 ------- 0 0.0 1.0 131 131
+ 0.495 0 1 cbr 210 ------- 0 0.0 1.0 132 132
d 0.495 0 1 cbr 210 ------- 0 0.0 1.0 132 132
r 0.4972 0 1 cbr 210 ------- 0 0.0 1.0 28 28
+ 0.49875 0 1 cbr 210 ------- 0 0.0 1.0 133 133
d 0.49875 0 1 cbr 210 ------- 0 0.0 1.0 133 133
+ 0.5025 0 1 cbr 210 ------- 0 0.0 1.0 134 134
d 0.5025 0 1 cbr 210 ------- 0 0.0 1.0 134 134
- 0.504 0 1 cbr 210 ------- 0 0.0 1.0 30 30
+ 0.50625 0 1 cbr 210 ------- 0 0.0 1.0 135 135
+ 0.51 0 1 cbr 210 ------- 0 0.0 1.0 136 136
d 0.51 0 1 cbr 210 ------- 0 0.0 1.0 136 136
+ 0.51375 0 1 cbr 210 ------- 0 0.0 1.0 137 137
d 0.51375 0 1 cbr 210 ------- 0 0.0 1.0 137 137
r 0.514 0 1 cbr 210 ------- 0 0.0 1.0 29 29
+ 0.5175 0 1 cbr 210 ------- 0 0.0 1.0 138 138
d 0.5175 0 1 cbr 210 ------- 0 0.0 1.0 138 138
- 0.5208 0 1 cbr 210 ------- 0 0.0 1.0 31 31
+ 0.52125 0 1 cbr 210 ------- 0 0.0 1.0 139 139
+ 0.525 0 1 cbr 210 ------- 0 0.0 1.0 140 140
d 0.525 0 1 cbr 210 ------- 0 0.0 1.0 140 140
+ 0.52875 0 1 cbr 210 ------- 0 0.0 1.0 141 141
d 0.52875 0 1 cbr 210 ------- 0 0.0 1.0 141 141
r 0.5308 0 1 cbr 210 ------- 0 0.0 1.0 30 30
+ 0.5325 0 1 cbr 210 ------- 0 0.0 1.0 142 142
d 0.5325 0 1 cbr 210 ------- 0 0.0 1.0 142 142
+ 0.53625 0 1 cbr 210 ------- 0 0.0 1.0 143 143
d 0.53625 0 1 cbr 210 ------- 0 0.0 1.0 143 143
- 0.5376 0 1 cbr 210 ------- 0 0.0 1.0 32 32
+ 0.54 0 1 cbr 210 ------- 0 0.0 1.0 144 144
+ 0.54375 0 1 cbr 210 ------- 0 0.0 1.0 145 145
d 0.54375 0 1 cbr 210 ------- 0 0.0 1.0 145 145
+ 0.5475 0 1 cbr 210 ------- 0 0.0 1.0 146 146
d 0.5475 0 1 cbr 210 ------- 0 0.0 1.0 146 146
r 0.5476 0 1 cbr 210 ------- 0 0.0 1.0 31 31
+ 0.55125 0 1 cbr 210 ------- 0 0.0 1.0 147 147
d 0.55125 0 1 cbr 210 ------- 0 0.0 1.0 147 147
- 0.5544 0 1 cbr 210 ------- 0 0.0 1.0 33 33
+ 0.555 0 1 cbr 210 ------- 0 0.0 1.0 148 148
+ 0.55875 0 1 cbr 210 ------- 0 0.0 1.0 149 149
d 0.55875 0 1 cbr 210 ------- 0 0.0 1.0 149 149
+ 0.5625 0 1 cbr 210 ------- 0 0.0 1.0 150 150
d 0.5625 0 1 cbr 210 ------- 0 0.0 1.0 150 150
r 0.5644 0 1 cbr 210 ------- 0 0.0 1.0 32 32
+ 0.56625 0 1 cbr 210 ------- 0 0.0 1.0 151 151
d 0.56625 0 1 cbr 210 ------- 0 0.0 1.0 151 151
+ 0.57 0 1 cbr 210 ------- 0 0.0 1.0 152 152
d 0.57 0 1 cbr 210 ------- 0 0.0 1.0 152 152
- 0.5712 0 1 cbr 210 ------- 0 0.0 1.0 34 34
+ 0.57375 0 1 cbr 210 ------- 0 0.0 1.0 153 153
+ 0.5775 0 1 cbr 210 ------- 0 0.0 1.0 154 154
d 0.5775 0 1 cbr 210 ------- 0 0.0 1.0 154 154
r 0.5812 0 1 cbr 210 ------- 0 0.0 1.0 33 33
+ 0.58125 0 1 cbr 210 ------- 0 0.0 1.0 155 155
d 0.58125 0 1 cbr 210 ------- 0 0.0 1.0 155 155
+ 0.585 0 1 cbr 210 ------- 0 0.0 1.0 156 156
d 0.585 0 1 cbr 210 ------- 0 0.0 1.0 156 156
- 0.588 0 1 cbr 210 ------- 0 0.0 1.0 35 35
+ 0.58875 0 1 cbr 210 ------- 0 0.0 1.0 157 157
+ 0.5925 0 1 cbr 210 ------- 0 0.0 1.0 158 158
d 0.5925 0 1 cbr 210 ------- 0 0.0 1.0 158 158
+ 0.59625 0 1 cbr 210 ------- 0 0.0 1.0 159 159
d 0.59625 0 1 cbr 210 ------- 0 0.0 1.0 159 159
r 0.598 0 1 cbr 210 ------- 0 0.0 1.0 34 34
+ 0.6 0 1 cbr 210 ------- 0 0.0 1.0 160 160
d 0.6 0 1 cbr 210 ------- 0 0.0 1.0 160 160
+ 0.60375 0 1 cbr 210 ------- 0 0.0 1.0 161 161
d 0.60375 0 1 cbr 210 ------- 0 0.0 1.0 161 161
- 0.6048 0 1 cbr 210 ------- 0 0.0 1.0 36 36
+ 0.6075 0 1 cbr 210 ------- 0 0.0 1.0 162 162
+ 0.61125 0 1 cbr 210 ------- 0 0.0 1.0 163 163
d 0.61125 0 1 cbr 210 ------- 0 0.0 1.0 163 163
r 0.6148 0 1 cbr 210 ------- 0 0.0 1.0 35 35
+ 0.615 0 1 cbr 210 ------- 0 0.0 1.0 164 164
d 0.615 0 1 cbr 210 ------- 0 0.0 1.0 164 164
+ 0.61875 0 1 cbr 210 ------- 0 0.0 1.0 165 165
d 0.61875 0 1 cbr 210 ------- 0 0.0 1.0 165 165
- 0.6216 0 1 cbr 210 ------- 0 0.0 1.0 37 37
+ 0.6225 0 1 cbr 210 ------- 0 0.0 1.0 166 166
+ 0.62625 0 1 cbr 210 ------- 0 0.0 1.0 167 167
d 0.62625 0 1 cbr 210 ------- 0 0.0 1.0 167 167
+ 0.63 0 1 cbr 210 ------- 0 0.0 1.0 168 168
d 0.63 0 1 cbr 210 ------- 0 0.0 1.0 168 168
r 0.6316 0 1 cbr 210 ------- 0 0.0 1.0 36 36
+ 0.63375 0 1 cbr 210 ------- 0 0.0 1.0 169 169
d 0.63375 0 1 cbr 210 ------- 0 0.0 1.0 169 169
+ 0.6375 0 1 cbr 210 ------- 0 0.0 1.0 170 170
d 0.6375 0 1 cbr 210 ------- 0 0.0 1.0 170 170
- 0.6384 0 1 cbr 210 ------- 0 0.0 1.0 38 38
+ 0.64125 0 1 cbr 210 ------- 0 0.0 1.0 171 171
+ 0.645 0 1 cbr 210 ------- 0 0.0 1.0 172 172
d 0.645 0 1 cbr 210 ------- 0 0.0 1.0 172 172
r 0.6484 0 1 cbr 210 ------- 0 0.0 1.0 37 37
+ 0.64875 0 1 cbr 210 ------- 0 0.0 1.0 173 173
d 0.64875 0 1 cbr 210 ------- 0 0.0 1.0 173 173
+ 0.6525 0 1 cbr 210 ------- 0 0.0 1.0 174 174
d 0.6525 0 1 cbr 210 ------- 0 0.0 1.0 174 174
- 0.6552 0 1 cbr 210 ------- 0 0.0 1.0 39 39
+ 0.65625 0 1 cbr 210 ------- 0 0.0 1.0 175 175
+ 0.66 0 1 cbr 210 ------- 0 0.0 1.0 176 176
d 0.66 0 1 cbr 210 ------- 0 0.0 1.0 176 176
+ 0.66375 0 1 cbr 210 ------- 0 0.0 1.0 177 177
d 0.66375 0 1 cbr 210 ------- 0 0.0 1.0 177 177
r 0.6652 0 1 cbr 210 ------- 0 0.0 1.0 38 38
+ 0.6675 0 1 cbr 210 ------- 0 0.0 1.0 178 178
d 0.6675 0 1 cbr 210 ------- 0 0.0 1.0 178 178
+ 0.67125 0 1 cbr 210 ------- 0 0.0 1.0 179 179
d 0.67125 0 1 cbr 210 ------- 0 0.0 1.0 179 179
- 0.672 0 1 cbr 210 ------- 0 0.0 1.0 40 40
+ 0.675 0 1 cbr 210 ------- 0 0.0 1.0 180 180
+ 0.67875 0 1 cbr 210 ------- 0 0.0 1.0 181 181
d 0.67875 0 1 cbr 210 ------- 0 0.0 1.0 181 181
r 0.682 0 1 cbr 210 ------- 0 0.0 1.0 39 39
+ 0.6825 0 1 cbr 210 ------- 0 0.0 1.0 182 182
d 0.6825 0 1 cbr 210 ------- 0 0.0 1.0 182 182
+ 0.68625 0 1 cbr 210 ------- 0 0.0 1.0 183 183
d 0.68625 0 1 cbr 210 ------- 0 0.0 1.0 183 183
- 0.6888 0 1 cbr 210 ------- 0 0.0 1.0 41 41
+ 0.69 0 1 cbr 210 ------- 0 0.0 1.0 184 184
+ 0.69375 0 1 cbr 210 ------- 0 0.0 1.0 185 185
d 0.69375 0 1 cbr 210 ------- 0 0.0 1.0 185 185
+ 0.6975 0 1 cbr 210 ------- 0 0.0 1.0 186 186
d 0.6975 0 1 cbr 210 ------- 0 0.0 1.0 186 186
r 0.6988 0 1 cbr 210 ------- 0 0.0 1.0 40 40
+ 0.70125 0 1 cbr 210 ------- 0 0.0 1.0 187 187
d 0.70125 0 1 cbr 210 ------- 0 0.0 1.0 187 187
+ 0.705 0 1 cbr 210 ------- 0 0.0 1.0 188 188
d 0.705 0 1 cbr 210 ------- 0 0.0 1.0 188 188
- 0.7056 0 1 cbr 210 ------- 0 0.0 1.0 42 42
+ 0.70875 0 1 cbr 210 ------- 0 0.0 1.0 189 189
+ 0.7125 0 1 cbr 210 ------- 0 0.0 1.0 190 190
d 0.7125 0 1 cbr 210 ------- 0 0.0 1.0 190 190
r 0.7156 0 1 cbr 210 ------- 0 0.0 1.0 41 41
+ 0.71625 0 1 cbr 210 ------- 0 0.0 1.0 191 191
d 0.71625 0 1 cbr 210 ------- 0 0.0 1.0 191 191
+ 0.72 0 1 cbr 210 ------- 0 0.0 1.0 192 192
d 0.72 0 1 cbr 210 ------- 0 0.0 1.0 192 192
- 0.7224 0 1 cbr 210 ------- 0 0.0 1.0 43 43
+ 0.72375 0 1 cbr 210 ------- 0 0.0 1.0 193 193
+ 0.7275 0 1 cbr 210 ------- 0 0.0 1.0 194 194
d 0.7275 0 1 cbr 210 ------- 0 0.0 1.0 194 194
+ 0.73125 0 1 cbr 210 ------- 0 0.0 1.0 195 195
d 0.73125 0 1 cbr 210 ------- 0 0.0 1.0 195 195
r 0.7324 0 1 cbr 210 ------- 0 0.0 1.0 42 42
+ 0.735 0 1 cbr 210 ------- 0 0.0 1.0 196 196
d 0.735 0 1 cbr 210 ------- 0 0.0 1.0 196 196
+ 0.73875 0 1 cbr 210 ------- 0 0.0 1.0 197 197
d 0.73875 0 1 cbr 210 ------- 0 0.0 1.0 197 197
- 0.7392 0 1 cbr 210 ------- 0 0.0 1.0 44 44
+ 0.7425 0 1 cbr 210 ------- 0 0.0 1.0 198 198
+ 0.74625 0 1 cbr 210 ------- 0 0.0 1.0 199 199
d 0.74625 0 1 cbr 210 ------- 0 0.0 1.0 199 199
r 0.7492 0 1 cbr 210 ------- 0 0.0 1.0 43 43
+ 0.75 0 1 cbr 210 ------- 0 0.0 1.0 200 200
d 0.75 0 1 cbr 210 ------- 0 0.0 1.0 200 200
+ 0.75375 0 1 cbr 210 ------- 0 0.0 1.0 201 201
d 0.75375 0 1 cbr 210 ------- 0 0.0 1.0 201 201
- 0.756 0 1 cbr 210 ------- 0 0.0 1.0 45 45
+ 0.7575 0 1 cbr 210 ------- 0 0.0 1.0 202 202
+ 0.76125 0 1 cbr 210 ------- 0 0.0 1.0 203 203
d 0.76125 0 1 cbr 210 ------- 0 0.0 1.0 203 203
+ 0.765 0 1 cbr 210 ------- 0 0.0 1.0 204 204
d 0.765 0 1 cbr 210 ------- 0 0.0 1.0 204 204
r 0.766 0 1 cbr 210 ------- 0 0.0 1.0 44 44
+ 0.76875 0 1 cbr 210 ------- 0 0.0 1.0 205 205
d 0.76875 0 1 cbr 210 ------- 0 0.0 1.0 205 205
+ 0.7725 0 1 cbr 210 ------- 0 0.0 1.0 206 206
d 0.7725 0 1 cbr 210 ------- 0 0.0 1.0 206 206
- 0.7728 0 1 cbr 210 ------- 0 0.0 1.0 46 46
+ 0.77625 0 1 cbr 210 ------- 0 0.0 1.0 207 207
+ 0.78 0 1 cbr 210 ------- 0 0.0 1.0 208 208
d 0.78 0 1 cbr 210 ------- 0 0.0 1.0 208 208
r 0.7828 0 1 cbr 210 ------- 0 0.0 1.0 45 45
+ 0.78375 0 1 cbr 210 ------- 0 0.0 1.0 209 209
d 0.78375 0 1 cbr 210 ------- 0 0.0 1.0 209 209
+ 0.7875 0 1 cbr 210 ------- 0 0.0 1.0 210 210
d 0.7875 0 1 cbr 210 ------- 0 0.0 1.0 210 210
- 0.7896 0 1 cbr 210 ------- 0 0.0 1.0 47 47
+ 0.79125 0 1 cbr 210 ------- 0 0.0 1.0 211 211
+ 0.795 0 1 cbr 210 ------- 0 0.0 1.0 212 212
d 0.795 0 1 cbr 210 ------- 0 0.0 1.0 212 212
+ 0.79875 0 1 cbr 210 ------- 0 0.0 1.0 213 213
d 0.79875 0 1 cbr 210 ------- 0 0.0 1.0 213 213
r 0.7996 0 1 cbr 210 ------- 0 0.0 1.0 46 46
+ 0.8025 0 1 cbr 210 ------- 0 0.0 1.0 214 214
d 0.8025 0 1 cbr 210 ------- 0 0.0 1.0 214 214
+ 0.80625 0 1 cbr 210 ------- 0 0.0 1.0 215 215
d 0.80625 0 1 cbr 210 ------- 0 0.0 1.0 215 215
- 0.8064 0 1 cbr 210 ------- 0 0.0 1.0 48 48
+ 0.81 0 1 cbr 210 ------- 0 0.0 1.0 216 216
+ 0.81375 0 1 cbr 210 ------- 0 0.0 1.0 217 217
d 0.81375 0 1 cbr 210 ------- 0 0.0 1.0 217 217
r 0.8164 0 1 cbr 210 ------- 0 0.0 1.0 47 47
+ 0.8175 0 1 cbr 210 ------- 0 0.0 1.0 218 218
d 0.8175 0 1 cbr 210 ------- 0 0.0 1.0 218 218
+ 0.82125 0 1 cbr 210 ------- 0 0.0 1.0 219 219
d 0.82125 0 1 cbr 210 ------- 0 0.0 1.0 219 219
- 0.8232 0 1 cbr 210 ------- 0 0.0 1.0 49 49
+ 0.825 0 1 cbr 210 ------- 0 0.0 1.0 220 220
+ 0.82875 0 1 cbr 210 ------- 0 0.0 1.0 221 221
d 0.82875 0 1 cbr 210 ------- 0 0.0 1.0 221 221
+ 0.8325 0 1 cbr 210 ------- 0 0.0 1.0 222 222
d 0.8325 0 1 cbr 210 ------- 0 0.0 1.0 222 222
r 0.8332 0 1 cbr 210 ------- 0 0.0 1.0 48 48
+ 0.83625 0 1 cbr 210 ------- 0 0.0 1.0 223 223
d 0.83625 0 1 cbr 210 ------- 0 0.0 1.0 223 223
- 0.84 0 1 cbr 210 ------- 0 0.0 1.0 50 50
+ 0.84 0 1 cbr 210 ------- 0 0.0 1.0 224 224
+ 0.84375 0 1 cbr 210 ------- 0 0.0 1.0 225 225
d 0.84375 0 1 cbr 210 ------- 0 0.0 1.0 225 225
+ 0.8475 0 1 cbr 210 ------- 0 0.0 1.0 226 226
d 0.8475 0 1 cbr 210 ------- 0 0.0 1.0 226 226
r 0.85 0 1 cbr 210 ------- 0 0.0 1.0 49 49
+ 0.85125 0 1 cbr 210 ------- 0 0.0 1.0 227 227
d 0.85125 0 1 cbr 210 ------- 0 0.0 1.0 227 227
+ 0.855 0 1 cbr 210 ------- 0 0.0 1.0 228 228
d 0.855 0 1 cbr 210 ------- 0 0.0 1.0 228 228
- 0.8568 0 1 cbr 210 ------- 0 0.0 1.0 51 51
+ 0.85875 0 1 cbr 210 ------- 0 0.0 1.0 229 229
+ 0.8625 0 1 cbr 210 ------- 0 0.0 1.0 230 230
d 0.8625 0 1 cbr 210 ------- 0 0.0 1.0 230 230
+ 0.86625 0 1 cbr 210 ------- 0 0.0 1.0 231 231
d 0.86625 0 1 cbr 210 ------- 0 0.0 1.0 231 231
r 0.8668 0 1 cbr 210 ------- 0 0.0 1.0 50 50
+ 0.87 0 1 cbr 210 ------- 0 0.0 1.0 232 232
d 0.87 0 1 cbr 210 ------- 0 0.0 1.0 232 232
- 0.8736 0 1 cbr 210 ------- 0 0.0 1.0 52 52
+ 0.87375 0 1 cbr 210 ------- 0 0.0 1.0 233 233
+ 0.8775 0 1 cbr 210 ------- 0 0.0 1.0 234 234
d 0.8775 0 1 cbr 210 ------- 0 0.0 1.0 234 234
+ 0.88125 0 1 cbr 210 ------- 0 0.0 1.0 235 235
d 0.88125 0 1 cbr 210 ------- 0 0.0 1.0 235 235
r 0.8836 0 1 cbr 210 ------- 0 0.0 1.0 51 51
+ 0.885 0 1 cbr 210 ------- 0 0.0 1.0 236 236
d 0.885 0 1 cbr 210 ------- 0 0.0 1.0 236 236
+ 0.88875 0 1 cbr 210 ------- 0 0.0 1.0 237 237
d 0.88875 0 1 cbr 210 ------- 0 0.0 1.0 237 237
- 0.8904 0 1 cbr 210 ------- 0 0.0 1.0 53 53
+ 0.8925 0 1 cbr 210 ------- 0 0.0 1.0 238 238
+ 0.89625 0 1 cbr 210 ------- 0 0.0 1.0 239 239
d 0.89625 0 1 cbr 210 ------- 0 0.0 1.0 239 239
+ 0.9 0 1 cbr 210 ------- 0 0.0 1.0 240 240
d 0.9 0 1 cbr 210 ------- 0 0.0 1.0 240 240
r 0.9004 0 1 cbr 210 ------- 0 0.0 1.0 52 52
+ 0.90375 0 1 cbr 210 ------- 0 0.0 1.0 241 241
d 0.90375 0 1 cbr 210 ------- 0 0.0 1.0 241 241
- 0.9072 0 1 cbr 210 ------- 0 0.0 1.0 54 54
+ 0.9075 0 1 cbr 210 ------- 0 0.0 1.0 242 242
+ 0.91125 0 1 cbr 210 ------- 0 0.0 1.0 243 243
d 0.91125 0 1 cbr 210 ------- 0 0.0 1.0 243 243
+ 0.915 0 1 cbr 210 ------- 0 0.0 1.0 244 244
d 0.915 0 1 cbr 210 ------- 0 0.0 1.0 244 244
r 0.9172 0 1 cbr 210 ------- 0 0.0 1.0 53 53
+ 0.91875 0 1 cbr 210 ------- 0 0.0 1.0 245 245
d 0.91875 0 1 cbr 210 ------- 0 0.0 1.0 245 245
+ 0.9225 0 1 cbr 210 ------- 0 0.0 1.0 246 246
d 0.9225 0 1 cbr 210 ------- 0 0.0 1.0 246 246
- 0.924 0 1 cbr 210 ------- 0 0.0 1.0 55 55
+ 0.92625 0 1 cbr 210 ------- 0 0.0 1.0 247 247
+ 0.93 0 1 cbr 210 ------- 0 0.0 1.0 248 248
d 0.93 0 1 cbr 210 ------- 0 0.0 1.0 248 248
+ 0.93375 0 1 cbr 210 ------- 0 0.0 1.0 249 249
d 0.93375 0 1 cbr 210 ------- 0 0.0 1.0 249 249
r 0.934 0 1 cbr 210 ------- 0 0.0 1.0 54 54
+ 0.9375 0 1 cbr 210 ------- 0 0.0 1.0 250 250
d 0.9375 0 1 cbr 210 ------- 0 0.0 1.0 250 250
- 0.9408 0 1 cbr 210 ------- 0 0.0 1.0 56 56
+ 0.94125 0 1 cbr 210 ------- 0 0.0 1.0 251 251
+ 0.945 0 1 cbr 210 ------- 0 0.0 1.0 252 252
d 0.945 0 1 cbr 210 ------- 0 0.0 1.0 252 252
+ 0.94875 0 1 cbr 210 ------- 0 0.0 1.0 253 253
d 0.94875 0 1 cbr 210 ------- 0 0.0 1.0 253 253
r 0.9508 0 1 cbr 210 ------- 0 0.0 1.0 55 55
+ 0.9525 0 1 cbr 210 ------- 0 0.0 1.0 254 254
d 0.9525 0 1 cbr 210 ------- 0 0.0 1.0 254 254
+ 0.95625 0 1 cbr 210 ------- 0 0.0 1.0 255 255
d 0.95625 0 1 cbr 210 ------- 0 0.0 1.0 255 255
- 0.9576 0 1 cbr 210 ------- 0 0.0 1.0 57 57
+ 0.96 0 1 cbr 210 ------- 0 0.0 1.0 256 256
+ 0.96375 0 1 cbr 210 ------- 0 0.0 1.0 257 257
d 0.96375 0 1 cbr 210 ------- 0 0.0 1.0 257 257
+ 0.9675 0 1 cbr 210 ------- 0 0.0 1.0 258 258
d 0.9675 0 1 cbr 210 ------- 0 0.0 1.0 258 258
r 0.9676 0 1 cbr 210 ------- 0 0.0 1.0 56 56
+ 0.97125 0 1 cbr 210 ------- 0 0.0 1.0 259 259
d 0.97125 0 1 cbr 210 ------- 0 0.0 1.0 259 259
- 0.9744 0 1 cbr 210 ------- 0 0.0 1.0 58 58
+ 0.975 0 1 cbr 210 ------- 0 0.0 1.0 260 260
+ 0.97875 0 1 cbr 210 ------- 0 0.0 1.0 261 261
d 0.97875 0 1 cbr 210 ------- 0 0.0 1.0 261 261
+ 0.9825 0 1 cbr 210 ------- 0 0.0 1.0 262 262
d 0.9825 0 1 cbr 210 ------- 0 0.0 1.0 262 262
r 0.9844 0 1 cbr 210 ------- 0 0.0 1.0 57 57
+ 0.98625 0 1 cbr 210 ------- 0 0.0 1.0 263 263
d 0.98625 0 1 cbr 210 ------- 0 0.0 1.0 263 263
+ 0.99 0 1 cbr 210 ------- 0 0.0 1.0 264 264
d 0.99 0 1 cbr 210 ------- 0 0.0 1.0 264 264
- 0.9912 0 1 cbr 210 ------- 0 0.0 1.0 59 59
+ 0.99375 0 1 cbr 210 ------- 0 0.0 1.0 265 265
+ 0.9975 0 1 cbr 210 ------- 0 0.0 1.0 266 266
d 0.9975 0 1 cbr 210 ------- 0 0.0 1.0 266 266
r 1.0012 0 1 cbr 210 ------- 0 0.0 1.0 58 58
+ 1.00125 0 1 cbr 210 ------- 0 0.0 1.0 267 267
d 1.00125 0 1 cbr 210 ------- 0 0.0 1.0 267 267
+ 1.005 0 1 cbr 210 ------- 0 0.0 1.0 268 268
d 1.005 0 1 cbr 210 ------- 0 0.0 1.0 268 268
- 1.008 0 1 cbr 210 ------- 0 0.0 1.0 60 60
+ 1.00875 0 1 cbr 210 ------- 0 0.0 1.0 269 269
+ 1.0125 0 1 cbr 210 ------- 0 0.0 1.0 270 270
d 1.0125 0 1 cbr 210 ------- 0 0.0 1.0 270 270
+ 1.01625 0 1 cbr 210 ------- 0 0.0 1.0 271 271
d 1.01625 0 1 cbr 210 ------- 0 0.0 1.0 271 271
r 1.018 0 1 cbr 210 ------- 0 0.0 1.0 59 59
+ 1.02 0 1 cbr 210 ------- 0 0.0 1.0 272 272
d 1.02 0 1 cbr 210 ------- 0 0.0 1.0 272 272
+ 1.02375 0 1 cbr 210 ------- 0 0.0 1.0 273 273
d 1.02375 0 1 cbr 210 ------- 0 0.0 1.0 273 273
- 1.0248 0 1 cbr 210 ------- 0 0.0 1.0 61 61
+ 1.0275 0 1 cbr 210 ------- 0 0.0 1.0 274 274
+ 1.03125 0 1 cbr 210 ------- 0 0.0 1.0 275 275
d 1.03125 0 1 cbr 210 ------- 0 0.0 1.0 275 275
r 1.0348 0 1 cbr 210 ------- 0 0.0 1.0 60 60
+ 1.035 0 1 cbr 210 ------- 0 0.0 1.0 276 276
d 1.035 0 1 cbr 210 ------- 0 0.0 1.0 276 276
+ 1.03875 0 1 cbr 210 ------- 0 0.0 1.0 277 277
d 1.03875 0 1 cbr 210 ------- 0 0.0 1.0 277 277
- 1.0416 0 1 cbr 210 ------- 0 0.0 1.0 62 62
+ 1.0425 0 1 cbr 210 ------- 0 0.0 1.0 278 278
+ 1.04625 0 1 cbr 210 ------- 0 0.0 1.0 279 279
d 1.04625 0 1 cbr 210 ------- 0 0.0 1.0 279 279
+ 1.05 0 1 cbr 210 ------- 0 0.0 1.0 280 280
d 1.05 0 1 cbr 210 ------- 0 0.0 1.0 280 280
r 1.0516 0 1 cbr 210 ------- 0 0.0 1.0 61 61
+ 1.05375 0 1 cbr 210 ------- 0 0.0 1.0 281 281
d 1.05375 0 1 cbr 210 ------- 0 0.0 1.0 281 281
+ 1.0575 0 1 cbr 210 ------- 0 0.0 1.0 282 282
d 1.0575 0 1 cbr 210 ------- 0 0.0 1.0 282 282
- 1.0584 0 1 cbr 210 ------- 0 0.0 1.0 63 63
+ 1.06125 0 1 cbr 210 ------- 0 0.0 1.0 283 283
+ 1.065 0 1 cbr 210 ------- 0 0.0 1.0 284 284
d 1.065 0 1 cbr 210 ------- 0 0.0 1.0 284 284
r 1.0684 0 1 cbr 210 ------- 0 0.0 1.0 62 62
+ 1.06875 0 1 cbr 210 ------- 0 0.0 1.0 285 285
d 1.06875 0 1 cbr 210 ------- 0 0.0 1.0 285 285
+ 1.0725 0 1 cbr 210 ------- 0 0.0 1.0 286 286
d 1.0725 0 1 cbr 210 ------- 0 0.0 1.0 286 286
- 1.0752 0 1 cbr 210 ------- 0 0.0 1.0 68 68
+ 1.07625 0 1 cbr 210 ------- 0 0.0 1.0 287 287
+ 1.08 0 1 cbr 210 ------- 0 0.0 1.0 288 288
d 1.08 0 1 cbr 210 ------- 0 0.0 1.0 288 288
+ 1.08375 0 1 cbr 210 ------- 0 0.0 1.0 289 289
d 1.08375 0 1 cbr 210 ------- 0 0.0 1.0 289 289
r 1.0852 0 1 cbr 210 ------- 0 0.0 1.0 63 63
+ 1.0875 0 1 cbr 210 ------- 0 0.0 1.0 290 290
d 1.0875 0 1 cbr 210 ------- 0 0.0 1.0 290 290
+ 1.09125 0 1 cbr 210 ------- 0 0.0 1.0 291 291
d 1.09125 0 1 cbr 210 ------- 0 0.0 1.0 291 291
- 1.092 0 1 cbr 210 ------- 0 0.0 1.0 72 72
+ 1.095 0 1 cbr 210 ------- 0 0.0 1.0 292 292
+ 1.09875 0 1 cbr 210 ------- 0 0.0 1.0 293 293
d 1.09875 0 1 cbr 210 ------- 0 0.0 1.0 293 293
r 1.102 0 1 cbr 210 ------- 0 0.0 1.0 68 68
+ 1.1025 0 1 cbr 210 ------- 0 0.0 1.0 294 294
d 1.1025 0 1 cbr 210 ------- 0 0.0 1.0 294 294
+ 1.10625 0 1 cbr 210 ------- 0 0.0 1.0 295 295
d 1.10625 0 1 cbr 210 ------- 0 0.0 1.0 295 295
- 1.1088 0 1 cbr 210 ------- 0 0.0 1.0 77 77
+ 1.11 0 1 cbr 210 ------- 0 0.0 1.0 296 296
+ 1.11375 0 1 cbr 210 ------- 0 0.0 1.0 297 297
d 1.11375 0 1 cbr 210 ------- 0 0.0 1.0 297 297
+ 1.1175 0 1 cbr 210 ------- 0 0.0 1.0 298 298
d 1.1175 0 1 cbr 210 ------- 0 0.0 1.0 298 298
r 1.1188 0 1 cbr 210 ------- 0 0.0 1.0 72 72
+ 1.12125 0 1 cbr 210 ------- 0 0.0 1.0 299 299
d 1.12125 0 1 cbr 210 ------- 0 0.0 1.0 299 299
+ 1.125 0 1 cbr 210 ------- 0 0.0 1.0 300 300
d 1.125 0 1 cbr 210 ------- 0 0.0 1.0 300 300
- 1.1256 0 1 cbr 210 ------- 0 0.0 1.0 81 81
+ 1.12875 0 1 cbr 210 ------- 0 0.0 1.0 301 301
+ 1.1325 0 1 cbr 210 ------- 0 0.0 1.0 302 302
d 1.1325 0 1 cbr 210 ------- 0 0.0 1.0 302 302
r 1.1356 0 1 cbr 210 ------- 0 0.0 1.0 77 77
+ 1.13625 0 1 cbr 210 ------- 0 0.0 1.0 303 303
d 1.13625 0 1 cbr 210 ------- 0 0.0 1.0 303 303
+ 1.14 0 1 cbr 210 ------- 0 0.0 1.0 304 304
d 1.14 0 1 cbr 210 ------- 0 0.0 1.0 304 304
- 1.1424 0 1 cbr 210 ------- 0 0.0 1.0 86 86
+ 1.14375 0 1 cbr 210 ------- 0 0.0 1.0 305 305
+ 1.1475 0 1 cbr 210 ------- 0 0.0 1.0 306 306
d 1.1475 0 1 cbr 210 ------- 0 0.0 1.0 306 306
+ 1.15125 0 1 cbr 210 ------- 0 0.0 1.0 307 307
d 1.15125 0 1 cbr 210 ------- 0 0.0 1.0 307 307
r 1.1524 0 1 cbr 210 ------- 0 0.0 1.0 81 81
+ 1.155 0 1 cbr 210 ------- 0 0.0 1.0 308 308
d 1.155 0 1 cbr 210 ------- 0 0.0 1.0 308 308
+ 1.15875 0 1 cbr 210 ------- 0 0.0 1.0 309 309
d 1.15875 0 1 cbr 210 ------- 0 0.0 1.0 309 309
- 1.1592 0 1 cbr 210 ------- 0 0.0 1.0 90 90
+ 1.1625 0 1 cbr 210 ------- 0 0.0 1.0 310 310
+ 1.16625 0 1 cbr 210 ------- 0 0.0 1.0 311 311
d 1.16625 0 1 cbr 210 ------- 0 0.0 1.0 311 311
r 1.1692 0 1 cbr 210 ------- 0 0.0 1.0 86 86
+ 1.17 0 1 cbr 210 ------- 0 0.0 1.0 312 312
d 1.17 0 1 cbr 210 ------- 0 0.0 1.0 312 312
+ 1.17375 0 1 cbr 210 ------- 0 0.0 1.0 313 313
d 1.17375 0 1 cbr 210 ------- 0 0.0 1.0 313 313
- 1.176 0 1 cbr 210 ------- 0 0.0 1.0 95 95
+ 1.1775 0 1 cbr 210 ------- 0 0.0 1.0 314 314