V -t * -v 1.0a5 -a 0
A -t * -n 1 -p 0 -o 0xffffffff -c 31 -a 1
A -t * -h 1 -m 2147483647 -s 0
n -t * -a 0 -s 0 -S UP -v circle -c black -i black
n -t * -a 1 -s 1 -S UP -v circle -c black -i black
l -t * -s 0 -d 1 -S UP -r 100000 -D 0.01 -c black
+ -t 0 -s 0 -d 1 -p cbr -e 210 -c 0 -i 0 -a 0 -x {0.0 1.0 0 ------- null}
- -t 0 -s 0 -d 1 -p cbr -e 210 -c 0 -i 0 -a 0 -x {0.0 1.0 0 ------- null}
h -t 0 -s 0 -d 1 -p cbr -e 210 -c 0 -i 0 -a 0 -x {0.0 1.0 -1 ------- null}
+ -t 0.00375 -s 0 -d 1 -p cbr -e 210 -c 0 -i 1 -a 0 -x {0.0 1.0 1 ------- null}
+ -t 0.0075 -s 0 -d 1 -p cbr -e 210 -c 0 -i 2 -a 0 -x {0.0 1.0 2 ------- null}
+ -t 0.01125 -s 0 -d 1 -p cbr -e 210 -c 0 -i 3 -a 0 -x {0.0 1.0 3 ------- null}
+ -t 0.015 -s 0 -d 1 -p cbr -e 210 -c 0 -i 4 -a 0 -x {0.0 1.0 4 ------- null}
- -t 0.0168 -s 0 -d 1 -p cbr -e 210 -c 0 -i 1 -a 0 -x {0.0 1.0 1 ------- null}
h -t 0.0168 -s 0 -d 1 -p cbr -e 210 -c 0 -i 1 -a 0 -x {0.0 1.0 -1 ------- null}
+ -t 0.01875 -s 0 -d 1 -p cbr -e 210 -c 0 -i 5 -a 0 -x {0.0 1.0 5 ------- null}
+ -t 0.0225 -s 0 -d 1 -p cbr -e 210 -c 0 -i 6 -a 0 -x {0.0 1.0 6 ------- null}
+ -t 0.02625 -s 0 -d 1 -p cbr -e 210 -c 0 -i 7 -a 0 -x {0.0 1.0 7 ------- null}
r -t 0.0268 -s 0 -d 1 -p cbr -e 210 -c 0 -i 0 -a 0 -x {0.0 1.0 0 ------- null}
+ -t 0.03 -s 0 -d 1 -p cbr -e 210 -c 0 -i 8 -a 0 -x {0.0 1.0 8 ------- null}
- -t 0.0336 -s 0 -d 1 -p cbr -e 210 -c 0 -i 2 -a 0 -x {0.0 1.0 2 ------- null}
h -t 0.0336 -s 0 -d 1 -p cbr -e 210 -c 0 -i 2 -a 0 -x {0.0 1.0 -1 ------- null}
+ -t 0.03375 -s 0 -d 1 -p cbr -e 210 -c 0 -i 9 -a 0 -x {0.0 1.0 9 ------- null}
+ -t 0.0375 -s 0 -d 1 -p cbr -e 210 -c 0 -i 10 -a 0 -x {0.0 1.0 10 ------- null}
+ -t 0.04125 -s 0 -d 1 -p cbr -e 210 -c 0 -i 11 -a 0 -x {0.0 1.0 11 ------- null}
r -t 0.0436 -s 0 -d 1 -p cbr -e 210 -c 0 -i 1 -a 0 -x {0.0 1.0 1 ------- null}
+ -t 0.045 -s 0 -d 1 -p cbr -e 210 -c 0 -i 12 -a 0 -x {0.0 1.0 12 ------- null}
+ -t 0.04875 -s 0 -d 1 -p cbr -e 210 -c 0 -i 13 -a 0 -x {0.0 1.0 13 ------- null}
- -t 0.0504 -s 0 -d 1 -p cbr -e 210 -c 0 -i 3 -a 0 -x {0.0 1.0 3 ------- null}
h -t 0.0504 -s 0 -d 1 -p cbr -e 210 -c 0 -i 3 -a 0 -x {0.0 1.0 -1 ------- null}
+ -t 0.0525 -s 0 -d 1 -p cbr -e 210 -c 0 -i 14 -a 0 -x {0.0 1.0 14 ------- null}
+ -t 0.05625 -s 0 -d 1 -p cbr -e 210 -c 0 -i 15 -a 0 -x {0.0 1.0 15 ------- null}
+ -t 0.06 -s 0 -d 1 -p cbr -e 210 -c 0 -i 16 -a 0 -x {0.0 1.0 16 ------- null}
r -t 0.0604 -s 0 -d 1 -p cbr -e 210 -c 0 -i 2 -a 0 -x {0.0 1.0 2 ------- null}
+ -t 0.06375 -s 0 -d 1 -p cbr -e 210 -c 0 -i 17 -a 0 -x {0.0 1.0 17 ------- null}
- -t 0.0672 -s 0 -d 1 -p cbr -e 210 -c 0 -i 4 -a 0 -x {0.0 1.0 4 ------- null}
h -t 0.0672 -s 0 -d 1 -p cbr -e 210 -c 0 -i 4 -a 0 -x {0.0 1.0 -1 ------- null}
+ -t 0.0675 -s 0 -d 1 -p cbr -e 210 -c 0 -i 18 -a 0 -x {0.0 1.0 18 ------- null}
+ -t 0.07125 -s 0 -d 1 -p cbr -e 210 -c 0 -i 19 -a 0 -x {0.0 1.0 19 ------- null}
+ -t 0.075 -s 0 -d 1 -p cbr -e 210 -c 0 -i 20 -a 0 -x {0.0 1.0 20 ------- null}
r -t 0.0772 -s 0 -d 1 -p cbr -e 210 -c 0 -i 3 -a 0 -x {0.0 1.0 3 ------- null}
+ -t 0.07875 -s 0 -d 1 -p cbr -e 210 -c 0 -i 21 -a 0 -x {0.0 1.0 21 ------- null}
+ -t 0.0825 -s 0 -d 1 -p cbr -e 210 -c 0 -i 22 -a 0 -x {0.0 1.0 22 ------- null}
- -t 0.084 -s 0 -d 1 -p cbr -e 210 -c 0 -i 5 -a 0 -x {0.0 1.0 5 ------- null}
h -t 0.084 -s 0 -d 1 -p cbr -e 210 -c 0 -i 5 -a 0 -x {0.0 1.0 -1 ------- null}
+ -t 0.08625 -s 0 -d 1 -p cbr -e 210 -c 0 -i 23 -a 0 -x {0.0 1.0 23 ------- null}
+ -t 0.0900000000000001 -s 0 -d 1 -p cbr -e 210 -c 0 -i 24 -a 0 -x {0.0 1.0 24 ------- null}
+ -t 0.0937500000000001 -s 0 -d 1 -p cbr -e 210 -c 0 -i 25 -a 0 -x {0.0 1.0 25 ------- null}
r -t 0.094 -s 0 -d 1 -p cbr -e 210 -c 0 -i 4 -a 0 -x {0.0 1.0 4 ------- null}
+ -t 0.0975000000000001 -s 0 -d 1 -p cbr -e 210 -c 0 -i 26 -a 0 -x {0.0 1.0 26 ------- null}
- -t 0.1008 -s 0 -d 1 -p cbr -e 210 -c 0 -i 6 -a 0 -x {0.0 1.0 6 ------- null}
h -t 0.1008 -s 0 -d 1 -p cbr -e 210 -c 0 -i 6 -a 0 -x {0.0 1.0 -1 ------- null}
+ -t 0.10125 -s 0 -d 1 -p cbr -e 210 -c 0 -i 27 -a 0 -x {0.0 1.0 27 ------- null}
+ -t 0.105 -s 0 -d 1 -p cbr -e 210 -c 0 -i 28 -a 0 -x {0.0 1.0 28 ------- null}
+ -t 0.10875 -s 0 -d 1 -p cbr -e 210 -c 0 -i 29 -a 0 -x {0.0 1.0 29 ------- null}
r -t 0.1108 -s 0 -d 1 -p cbr -e 210 -c 0 -i 5 -a 0 -x {0.0 1.0 5 ------- null}
+ -t 0.1125 -s 0 -d 1 -p cbr -e 210 -c 0 -i 30 -a 0 -x {0.0 1.0 30 ------- null}
+ -t 0.11625 -s 0 -d 1 -p cbr -e 210 -c 0 -i 31 -a 0 -x {0.0 1.0 31 ------- null}
- -t 0.1176 -s 0 -d 1 -p cbr -e 210 -c 0 -i 7 -a 0 -x {0.0 1.0 7 ------- null}
h -t 0.1176 -s 0 -d 1 -p cbr -e 210 -c 0 -i 7 -a 0 -x {0.0 1.0 -1 ------- null}
+ -t 0.12 -s 0 -d 1 -p cbr -e 210 -c 0 -i 32 -a 0 -x {0.0 1.0 32 ------- null}
+ -t 0.12375 -s 0 -d 1 -p cbr -e 210 -c 0 -i 33 -a 0 -x {0.0 1.0 33 ------- null}
+ -t 0.1275 -s 0 -d 1 -p cbr -e 210 -c 0 -i 34 -a 0 -x {0.0 1.0 34 ------- null}
r -t 0.1276 -s 0 -d 1 -p cbr -e 210 -c 0 -i 6 -a 0 -x {0.0 1.0 6 ------- null}
+ -t 0.13125 -s 0 -d 1 -p cbr -e 210 -c 0 -i 35 -a 0 -x {0.0 1.0 35 ------- null}
- -t 0.1344 -s 0 -d 1 -p cbr -e 210 -c 0 -i 8 -a 0 -x {0.0 1.0 8 ------- null}
h -t 0.1344 -s 0 -d 1 -p cbr -e 210 -c 0 -i 8 -a 0 -x {0.0 1.0 -1 ------- null}
+ -t 0.135 -s 0 -d 1 -p cbr -e 210 -c 0 -i 36 -a 0 -x {0.0 1.0 36 ------- null}
+ -t 0.13875 -s 0 -d 1 -p cbr -e 210 -c 0 -i 37 -a 0 -x {0.0 1.0 37 ------- null}
+ -t 0.1425 -s 0 -d 1 -p cbr -e 210 -c 0 -i 38 -a 0 -x {0.0 1.0 38 ------- null}
r -t 0.1444 -s 0 -d 1 -p cbr -e 210 -c 0 -i 7 -a 0 -x {0.0 1.0 7 ------- null}
+ -t 0.14625 -s 0 -d 1 -p cbr -e 210 -c 0 -i 39 -a 0 -x {0.0 1.0 39 ------- null}
+ -t 0.15 -s 0 -d 1 -p cbr -e 210 -c 0 -i 40 -a 0 -x {0.0 1.0 40 ------- null}
- -t 0.1512 -s 0 -d 1 -p cbr -e 210 -c 0 -i 9 -a 0 -x {0.0 1.0 9 ------- null}
h -t 0.1512 -s 0 -d 1 -p cbr -e 210 -c 0 -i 9 -a 0 -x {0.0 1.0 -1 ------- null}
+ -t 0.15375 -s 0 -d 1 -p cbr -e 210 -c 0 -i 41 -a 0 -x {0.0 1.0 41 ------- null}
+ -t 0.1575 -s 0 -d 1 -p cbr -e 210 -c 0 -i 42 -a 0 -x {0.0 1.0 42 ------- null}
r -t 0.1612 -s 0 -d 1 -p cbr -e 210 -c 0 -i 8 -a 0 -x {0.0 1.0 8 ------- null}
+ -t 0.16125 -s 0 -d 1 -p cbr -e 210 -c 0 -i 43 -a 0 -x {0.0 1.0 43 ------- null}
+ -t 0.165 -s 0 -d 1 -p cbr -e 210 -c 0 -i 44 -a 0 -x {0.0 1.0 44 ------- null}
- -t 0.168 -s 0 -d 1 -p cbr -e 210 -c 0 -i 10 -a 0 -x {0.0 1.0 10 ------- null}
h -t 0.168 -s 0 -d 1 -p cbr -e 210 -c 0 -i 10 -a 0 -x {0.0 1.0 -1 ------- null}
+ -t 0.16875 -s 0 -d 1 -p cbr -e 210 -c 0 -i 45 -a 0 -x {0.0 1.0 45 ------- null}
+ -t 0.1725 -s 0 -d 1 -p cbr -e 210 -c 0 -i 46 -a 0 -x {0.0 1.0 46 ------- null}
+ -t 0.17625 -s 0 -d 1 -p cbr -e 210 -c 0 -i 47 -a 0 -x {0.0 1.0 47 ------- null}
r -t 0.178 -s 0 -d 1 -p cbr -e 210 -c 0 -i 9 -a 0 -x {0.0 1.0 9 ------- null}
+ -t 0.18 -s 0 -d 1 -p cbr -e 210 -c 0 -i 48 -a 0 -x {0.0 1.0 48 ------- null}
+ -t 0.18375 -s 0 -d 1 -p cbr -e 210 -c 0 -i 49 -a 0 -x {0.0 1.0 49 ------- null}
- -t 0.1848 -s 0 -d 1 -p cbr -e 210 -c 0 -i 11 -a 0 -x {0.0 1.0 11 ------- null}
h -t 0.1848 -s 0 -d 1 -p cbr -e 210 -c 0 -i 11 -a 0 -x {0.0 1.0 -1 ------- null}
+ -t 0.1875 -s 0 -d 1 -p cbr -e 210 -c 0 -i 50 -a 0 -x {0.0 1.0 50 ------- null}
+ -t 0.19125 -s 0 -d 1 -p cbr -e 210 -c 0 -i 51 -a 0 -x {0.0 1.0 51 ------- null}
r -t 0.1948 -s 0 -d 1 -p cbr -e 210 -c 0 -i 10 -a 0 -x {0.0 1.0 10 ------- null}
+ -t 0.195 -s 0 -d 1 -p cbr -e 210 -c 0 -i 52 -a 0 -x {0.0 1.0 52 ------- null}
+ -t 0.19875 -s 0 -d 1 -p cbr -e 210 -c 0 -i 53 -a 0 -x {0.0 1.0 53 ------- null}
- -t 0.2016 -s 0 -d 1 -p cbr -e 210 -c 0 -i 12 -a 0 -x {0.0 1.0 12 ------- null}
h -t 0.2016 -s 0 -d 1 -p cbr -e 210 -c 0 -i 12 -a 0 -x {0.0 1.0 -1 ------- null}
+ -t 0.2025 -s 0 -d 1 -p cbr -e 210 -c 0 -i 54 -a 0 -x {0.0 1.0 54 ------- null}
+ -t 0.20625 -s 0 -d 1 -p cbr -e 210 -c 0 -i 55 -a 0 -x {0.0 1.0 55 ------- null}
+ -t 0.21 -s 0 -d 1 -p cbr -e 210 -c 0 -i 56 -a 0 -x {0.0 1.0 56 ------- null}
r -t 0.2116 -s 0 -d 1 -p cbr -e 210 -c 0 -i 11 -a 0 -x {0.0 1.0 11 ------- null}
+ -t 0.21375 -s 0 -d 1 -p cbr -e 210 -c 0 -i 57 -a 0 -x {0.0 1.0 57 ------- null}
+ -t 0.2175 -s 0 -d 1 -p cbr -e 210 -c 0 -i 58 -a 0 -x {0.0 1.0 58 ------- null}
- -t 0.2184 -s 0 -d 1 -p cbr -e 210 -c 0 -i 13 -a 0 -x {0.0 1.0 13 ------- null}
h -t 0.2184 -s 0 -d 1 -p cbr -e 210 -c 0 -i 13 -a 0 -x {0.0 1.0 -1 ------- null}
+ -t 0.22125 -s 0 -d 1 -p cbr -e 210 -c 0 -i 59 -a 0 -x {0.0 1.0 59 ------- null}
+ -t 0.225 -s 0 -d 1 -p cbr -e 210 -c 0 -i 60 -a 0 -x {0.0 1.0 60 ------- null}
r -t 0.2284 -s 0 -d 1 -p cbr -e 210 -c 0 -i 12 -a 0 -x {0.0 1.0 12 ------- null}
+ -t 0.22875 -s 0 -d 1 -p cbr -e 210 -c 0 -i 61 -a 0 -x {0.0 1.0 61 ------- null}
+ -t 0.2325 -s 0 -d 1 -p cbr -e 210 -c 0 -i 62 -a 0 -x {0.0 1.0 62 ------- null}
- -t 0.2352 -s 0 -d 1 -p cbr -e 210 -c 0 -i 14 -a 0 -x {0.0 1.0 14 ------- null}
h -t 0.2352 -s 0 -d 1 -p cbr -e 210 -c 0 -i 14 -a 0 -x {0.0 1.0 -1 ------- null}
+ -t 0.23625 -s 0 -d 1 -p cbr -e 210 -c 0 -i 63 -a 0 -x {0.0 1.0 63 ------- null}
+ -t 0.24 -s 0 -d 1 -p cbr -e 210 -c 0 -i 64 -a 0 -x {0.0 1.0 64 ------- null}
d -t 0.24 -s 0 -d 1 -p cbr -e 210 -c 0 -i 64 -a 0 -x {0.0 1.0 64 ------- null}
+ -t 0.24375 -s 0 -d 1 -p cbr -e 210 -c 0 -i 65 -a 0 -x {0.0 1.0 65 ------- null}
d -t 0.24375 -s 0 -d 1 -p cbr -e 210 -c 0 -i 65 -a 0 -x {0.0 1.0 65 ------- null}
r -t 0.2452 -s 0 -d 1 -p cbr -e 210 -c 0 -i 13 -a 0 -x {0.0 1.0 13 ------- null}
+ -t 0.2475 -s 0 -d 1 -p cbr -e 210 -c 0 -i 66 -a 0 -x {0.0 1.0 66 ------- null}
d -t 0.2475 -s 0 -d 1 -p cbr -e 210 -c 0 -i 66 -a 0 -x {0.0 1.0 66 ------- null}
+ -t 0.25125 -s 0 -d 1 -p cbr -e 210 -c 0 -i 67 -a 0 -x {0.0 1.0 67 ------- null}
d -t 0.25125 -s 0 -d 1 -p cbr -e 210 -c 0 -i 67 -a 0 -x {0.0 1.0 67 ------- null}
- -t 0.252 -s 0 -d 1 -p cbr -e 210 -c 0 -i 15 -a 0 -x {0.0 1.0 15 ------- null}
h -t 0.252 -s 0 -d 1 -p cbr -e 210 -c 0 -i 15 -a 0 -x {0.0 1.0 -1 ------- null}
+ -t 0.255 -s 0 -d 1 -p cbr -e 210 -c 0 -i 68 -a 0 -x {0.0 1.0 68 ------- null}
+ -t 0.25875 -s 0 -d 1 -p cbr -e 210 -c 0 -i 69 -a 0 -x {0.0 1.0 69 ------- null}
d -t 0.25875 -s 0 -d 1 -p cbr -e 210 -c 0 -i 69 -a 0 -x {0.0 1.0 69 ------- null}
r -t 0.262 -s 0 -d 1 -p cbr -e 210 -c 0 -i 14 -a 0 -x {0.0 1.0 14 ------- null}
+ -t 0.2625 -s 0 -d 1 -p cbr -e 210 -c 0 -i 70 -a 0 -x {0.0 1.0 70 ------- null}
d -t 0.2625 -s 0 -d 1 -p cbr -e 210 -c 0 -i 70 -a 0 -x {0.0 1.0 70 ------- null}
+ -t 0.26625 -s 0 -d 1 -p cbr -e 210 -c 0 -i 71 -a 0 -x {0.0 1.0 71 ------- null}
d -t 0.26625 -s 0 -d 1 -p cbr -e 210 -c 0 -i 71 -a 0 -x {0.0 1.0 71 ------- null}
- -t 0.2688 -s 0 -d 1 -p cbr -e 210 -c 0 -i 16 -a 0 -x {0.0 1.0 16 ------- null}
h -t 0.2688 -s 0 -d 1 -p cbr -e 210 -c 0 -i 16 -a 0 -x {0.0 1.0 -1 ------- null}
+ -t 0.27 -s 0 -d 1 -p cbr -e 210 -c 0 -i 72 -a 0 -x {0.0 1.0 72 ------- null}
+ -t 0.27375 -s 0 -d 1 -p cbr -e 210 -c 0 -i 73 -a 0 -x {0.0 1.0 73 ------- null}
d -t 0.27375 -s 0 -d 1 -p cbr -e 210 -c 0 -i 73 -a 0 -x {0.0 1.0 73 ------- null}
+ -t 0.2775 -s 0 -d 1 -p cbr -e 210 -c 0 -i 74 -a 0 -x {0.0 1.0 74 ------- null}
d -t 0.2775 -s 0 -d 1 -p cbr -e 210 -c 0 -i 74 -a 0 -x {0.0 1.0 74 ------- null}
r -t 0.2788 -s 0 -d 1 -p cbr -e 210 -c 0 -i 15 -a 0 -x {0.0 1.0 15 ------- null}
+ -t 0.28125 -s 0 -d 1 -p cbr -e 210 -c 0 -i 75 -a 0 -x {0.0 1.0 75 ------- null}
d -t 0.28125 -s 0 -d 1 -p cbr -e 210 -c 0 -i 75 -a 0 -x {0.0 1.0 75 ------- null}
+ -t 0.285 -s 0 -d 1 -p cbr -e 210 -c 0 -i 76 -a 0 -x {0.0 1.0 76 ------- null}
d -t 0.285 -s 0 -d 1 -p cbr -e 210 -c 0 -i 76 -a 0 -x {0.0 1.0 76 ------- null}
- -t 0.2856 -s 0 -d 1 -p cbr -e 210 -c 0 -i 17 -a 0 -x {0.0 1.0 17 ------- null}
h -t 0.2856 -s 0 -d 1 -p cbr -e 210 -c 0 -i 17 -a 0 -x {0.0 1.0 -1 ------- null}
+ -t 0.28875 -s 0 -d 1 -p cbr -e 210 -c 0 -i 77 -a 0 -x {0.0 1.0 77 ------- null}
+ -t 0.2925 -s 0 -d 1 -p cbr -e 210 -c 0 -i 78 -a 0 -x {0.0 1.0 78 ------- null}
d -t 0.2925 -s 0 -d 1 -p cbr -e 210 -c 0 -i 78 -a 0 -x {0.0 1.0 78 ------- null}
r -t 0.2956 -s 0 -d 1 -p cbr -e 210 -c 0 -i 16 -a 0 -x {0.0 1.0 16 ------- null}
+ -t 0.29625 -s 0 -d 1 -p cbr -e 210 -c 0 -i 79 -a 0 -x {0.0 1.0 79 ------- null}
d -t 0.29625 -s 0 -d 1 -p cbr -e 210 -c 0 -i 79 -a 0 -x {0.0 1.0 79 ------- null}
+ -t 0.3 -s 0 -d 1 -p cbr -e 210 -c 0 -i 80 -a 0 -x {0.0 1.0 80 ------- null}
d -t 0.3 -s 0 -d 1 -p cbr -e 210 -c 0 -i 80 -a 0 -x {0.0 1.0 80 ------- null}
- -t 0.3024 -s 0 -d 1 -p cbr -e 210 -c 0 -i 18 -a 0 -x {0.0 1.0 18 ------- null}
h -t 0.3024 -s 0 -d 1 -p cbr -e 210 -c 0 -i 18 -a 0 -x {0.0 1.0 -1 ------- null}
+ -t 0.30375 -s 0 -d 1 -p cbr -e 210 -c 0 -i 81 -a 0 -x {0.0 1.0 81 ------- null}
+ -t 0.3075 -s 0 -d 1 -p cbr -e 210 -c 0 -i 82 -a 0 -x {0.0 1.0 82 ------- null}
d -t 0.3075 -s 0 -d 1 -p cbr -e 210 -c 0 -i 82 -a 0 -x {0.0 1.0 82 ------- null}
+ -t 0.31125 -s 0 -d 1 -p cbr -e 210 -c 0 -i 83 -a 0 -x {0.0 1.0 83 ------- null}
d -t 0.31125 -s 0 -d 1 -p cbr -e 210 -c 0 -i 83 -a 0 -x {0.0 1.0 83 ------- null}
r -t 0.3124 -s 0 -d 1 -p cbr -e 210 -c 0 -i 17 -a 0 -x {0.0 1.0 17 ------- null}
+ -t 0.315 -s 0 -d 1 -p cbr -e 210 -c 0 -i 84 -a 0 -x {0.0 1.0 84 ------- null}
d -t 0.315 -s 0 -d 1 -p cbr -e 210 -c 0 -i 84 -a 0 -x {0.0 1.0 84 ------- null}
+ -t 0.31875 -s 0 -d 1 -p cbr -e 210 -c 0 -i 85 -a 0 -x {0.0 1.0 85 ------- null}
d -t 0.31875 -s 0 -d 1 -p cbr -e 210 -c 0 -i 85 -a 0 -x {0.0 1.0 85 ------- null}
- -t 0.3192 -s 0 -d 1 -p cbr -e 210 -c 0 -i 19 -a 0 -x {0.0 1.0 19 ------- null}
h -t 0.3192 -s 0 -d 1 -p cbr -e 210 -c 0 -i 19 -a 0 -x {0.0 1.0 -1 ------- null}
+ -t 0.3225 -s 0 -d 1 -p cbr -e 210 -c 0 -i 86 -a 0 -x {0.0 1.0 86 ------- null}
+ -t 0.32625 -s 0 -d 1 -p cbr -e 210 -c 0 -i 87 -a 0 -x {0.0 1.0 87 ------- null}
d -t 0.32625 -s 0 -d 1 -p cbr -e 210 -c 0 -i 87 -a 0 -x {0.0 1.0 87 ------- null}
r -t 0.3292 -s 0 -d 1 -p cbr -e 210 -c 0 -i 18 -a 0 -x {0.0 1.0 18 ------- null}
+ -t 0.33 -s 0 -d 1 -p cbr -e 210 -c 0 -i 88 -a 0 -x {0.0 1.0 88 ------- null}
d -t 0.33 -s 0 -d 1 -p cbr -e 210 -c 0 -i 88 -a 0 -x {0.0 1.0 88 ------- null}
+ -t 0.33375 -s 0 -d 1 -p cbr -e 210 -c 0 -i 89 -a 0 -x {0.0 1.0 89 ------- null}
d -t 0.33375 -s 0 -d 1 -p cbr -e 210 -c 0 -i 89 -a 0 -x {0.0 1.0 89 ------- null}
- -t 0.336 -s 0 -d 1 -p cbr -e 210 -c 0 -i 20 -a 0 -x {0.0 1.0 20 ------- null}
h -t 0.336 -s 0 -d 1 -p cbr -e 210 -c 0 -i 20 -a 0 -x {0.0 1.0 -1 ------- null}
+ -t 0.3375 -s 0 -d 1 -p cbr -e 210 -c 0 -i 90 -a 0 -x {0.0 1.0 90 ------- null}
+ -t 0.34125 -s 0 -d 1 -p cbr -e 210 -c 0 -i 91 -a 0 -x {0.0 1.0 91 ------- null}
d -t 0.34125 -s 0 -d 1 -p cbr -e 210 -c 0 -i 91 -a 0 -x {0.0 1.0 91 ------- null}
+ -t 0.345 -s 0 -d 1 -p cbr -e 210 -c 0 -i 92 -a 0 -x {0.0 1.0 92 ------- null}
d -t 0.345 -s 0 -d 1 -p cbr -e 210 -c 0 -i 92 -a 0 -x {0.0 1.0 92 ------- null}
r -t 0.346 -s 0 -d 1 -p cbr -e 210 -c 0 -i 19 -a 0 -x {0.0 1.0 19 ------- null}
+ -t 0.34875 -s 0 -d 1 -p cbr -e 210 -c 0 -i 93 -a 0 -x {0.0 1.0 93 ------- null}
d -t 0.34875 -s 0 -d 1 -p cbr -e 210 -c 0 -i 93 -a 0 -x {0.0 1.0 93 ------- null}
+ -t 0.3525 -s 0 -d 1 -p cbr -e 210 -c 0 -i 94 -a 0 -x {0.0 1.0 94 ------- null}
d -t 0.3525 -s 0 -d 1 -p cbr -e 210 -c 0 -i 94 -a 0 -x {0.0 1.0 94 ------- null}
- -t 0.3528 -s 0 -d 1 -p cbr -e 210 -c 0 -i 21 -a 0 -x {0.0 1.0 21 ------- null}
h -t 0.3528 -s 0 -d 1 -p cbr -e 210 -c 0 -i 21 -a 0 -x {0.0 1.0 -1 ------- null}
+ -t 0.35625 -s 0 -d 1 -p cbr -e 210 -c 0 -i 95 -a 0 -x {0.0 1.0 95 ------- null}
+ -t 0.359999999999999 -s 0 -d 1 -p cbr -e 210 -c 0 -i 96 -a 0 -x {0.0 1.0 96 ------- null}
d -t 0.359999999999999 -s 0 -d 1 -p cbr -e 210 -c 0 -i 96 -a 0 -x {0.0 1.0 96 ------- null}
r -t 0.3628 -s 0 -d 1 -p cbr -e 210 -c 0 -i 20 -a 0 -x {0.0 1.0 20 ------- null}
+ -t 0.363749999999999 -s 0 -d 1 -p cbr -e 210 -c 0 -i 97 -a 0 -x {0.0 1.0 97 ------- null}
d -t 0.363749999999999 -s 0 -d 1 -p cbr -e 210 -c 0 -i 97 -a 0 -x {0.0 1.0 97 ------- null}
+ -t 0.367499999999999 -s 0 -d 1 -p cbr -e 210 -c 0 -i 98 -a 0 -x {0.0 1.0 98 ------- null}
d -t 0.367499999999999 -s 0 -d 1 -p cbr -e 210 -c 0 -i 98 -a 0 -x {0.0 1.0 98 ------- null}
- -t 0.3696 -s 0 -d 1 -p cbr -e 210 -c 0 -i 22 -a 0 -x {0.0 1.0 22 ------- null}
h -t 0.3696 -s 0 -d 1 -p cbr -e 210 -c 0 -i 22 -a 0 -x {0.0 1.0 -1 ------- null}
+ -t 0.371249999999999 -s 0 -d 1 -p cbr -e 210 -c 0 -i 99 -a 0 -x {0.0 1.0 99 ------- null}
+ -t 0.374999999999999 -s 0 -d 1 -p cbr -e 210 -c 0 -i 100 -a 0 -x {0.0 1.0 100 ------- null}
d -t 0.374999999999999 -s 0 -d 1 -p cbr -e 210 -c 0 -i 100 -a 0 -x {0.0 1.0 100 ------- null}
+ -t 0.378749999999999 -s 0 -d 1 -p cbr -e 210 -c 0 -i 101 -a 0 -x {0.0 1.0 101 ------- null}
d -t 0.378749999999999 -s 0 -d 1 -p cbr -e 210 -c 0 -i 101 -a 0 -x {0.0 1.0 101 ------- null}
r -t 0.3796 -s 0 -d 1 -p cbr -e 210 -c 0 -i 21 -a 0 -x {0.0 1.0 21 ------- null}
+ -t 0.382499999999999 -s 0 -d 1 -p cbr -e 210 -c 0 -i 102 -a 0 -x {0.0 1.0 102 ------- null}
d -t 0.382499999999999 -s 0 -d 1 -p cbr -e 210 -c 0 -i 102 -a 0 -x {0.0 1.0 102 ------- null}
+ -t 0.386249999999999 -s 0 -d 1 -p cbr -e 210 -c 0 -i 103 -a 0 -x {0.0 1.0 103 ------- null}
d -t 0.386249999999999 -s 0 -d 1 -p cbr -e 210 -c 0 -i 103 -a 0 -x {0.0 1.0 103 ------- null}
- -t 0.3864 -s 0 -d 1 -p cbr -e 210 -c 0 -i 23 -a 0 -x {0.0 1.0 23 ------- null}
h -t 0.3864 -s 0 -d 1 -p cbr -e 210 -c 0 -i 23 -a 0 -x {0.0 1.0 -1 ------- null}
+ -t 0.389999999999999 -s 0 -d 1 -p cbr -e 210 -c 0 -i 104 -a 0 -x {0.0 1.0 104 ------- null}
+ -t 0.393749999999999 -s 0 -d 1 -p cbr -e 210 -c 0 -i 105 -a 0 -x {0.0 1.0 105 ------- null}
d -t 0.393749999999999 -s 0 -d 1 -p cbr -e 210 -c 0 -i 105 -a 0 -x {0.0 1.0 105 ------- null}
r -t 0.3964 -s 0 -d 1 -p cbr -e 210 -c 0 -i 22 -a 0 -x {0.0 1.0 22 ------- null}
+ -t 0.397499999999999 -s 0 -d 1 -p cbr -e 210 -c 0 -i 106 -a 0 -x {0.0 1.0 106 ------- null}
d -t 0.397499999999999 -s 0 -d 1 -p cbr -e 210 -c 0 -i 106 -a 0 -x {0.0 1.0 106 ------- null}
+ -t 0.401249999999999 -s 0 -d 1 -p cbr -e 210 -c 0 -i 107 -a 0 -x {0.0 1.0 107 ------- null}
d -t 0.401249999999999 -s 0 -d 1 -p cbr -e 210 -c 0 -i 107 -a 0 -x {0.0 1.0 107 ------- null}
- -t 0.4032 -s 0 -d 1 -p cbr -e 210 -c 0 -i 24 -a 0 -x {0.0 1.0 24 ------- null}
h -t 0.4032 -s 0 -d 1 -p cbr -e 210 -c 0 -i 24 -a 0 -x {0.0 1.0 -1 ------- null}
+ -t 0.404999999999999 -s 0 -d 1 -p cbr -e 210 -c 0 -i 108 -a 0 -x {0.0 1.0 108 ------- null}
+ -t 0.408749999999999 -s 0 -d 1 -p cbr -e 210 -c 0 -i 109 -a 0 -x {0.0 1.0 109 ------- null}
d -t 0.408749999999999 -s 0 -d 1 -p cbr -e 210 -c 0 -i 109 -a 0 -x {0.0 1.0 109 ------- null}
+ -t 0.412499999999999 -s 0 -d 1 -p cbr -e 210 -c 0 -i 110 -a 0 -x {0.0 1.0 110 ------- null}
d -t 0.412499999999999 -s 0 -d 1 -p cbr -e 210 -c 0 -i 110 -a 0 -x {0.0 1.0 110 ------- null}
r -t 0.4132 -s 0 -d 1 -p cbr -e 210 -c 0 -i 23 -a 0 -x {0.0 1.0 23 ------- null}
+ -t 0.416249999999999 -s 0 -d 1 -p cbr -e 210 -c 0 -i 111 -a 0 -x {0.0 1.0 111 ------- null}
d -t 0.416249999999999 -s 0 -d 1 -p cbr -e 210 -c 0 -i 111 -a 0 -x {0.0 1.0 111 ------- null}
+ -t 0.419999999999999 -s 0 -d 1 -p cbr -e 210 -c 0 -i 112 -a 0 -x {0.0 1.0 112 ------- null}
d -t 0.419999999999999 -s 0 -d 1 -p cbr -e 210 -c 0 -i 112 -a 0 -x {0.0 1.0 112 ------- null}
- -t 0.42 -s 0 -d 1 -p cbr -e 210 -c 0 -i 25 -a 0 -x {0.0 1.0 25 ------- null}
h -t 0.42 -s 0 -d 1 -p cbr -e 210 -c 0 -i 25 -a 0 -x {0.0 1.0 -1 ------- null}
+ -t 0.423749999999999 -s 0 -d 1 -p cbr -e 210 -c 0 -i 113 -a 0 -x {0.0 1.0 113 ------- null}
+ -t 0.427499999999999 -s 0 -d 1 -p cbr -e 210 -c 0 -i 114 -a 0 -x {0.0 1.0 114 ------- null}
d -t 0.427499999999999 -s 0 -d 1 -p cbr -e 210 -c 0 -i 114 -a 0 -x {0.0 1.0 114 ------- null}
r -t 0.43 -s 0 -d 1 -p cbr -e 210 -c 0 -i 24 -a 0 -x {0.0 1.0 24 ------- null}
+ -t 0.431249999999999 -s 0 -d 1 -p cbr -e 210 -c 0 -i 115 -a 0 -x {0.0 1.0 115 ------- null}
d -t 0.431249999999999 -s 0 -d 1 -p cbr -e 210 -c 0 -i 115 -a 0 -x {0.0 1.0 115 ------- null}
+ -t 0.434999999999999 -s 0 -d 1 -p cbr -e 210 -c 0 -i 116 -a 0 -x {0.0 1.0 116 ------- null}
d -t 0.434999999999999 -s 0 -d 1 -p cbr -e 210 -c 0 -i 116 -a 0 -x {0.0 1.0 116 ------- null}
- -t 0.4368 -s 0 -d 1 -p cbr -e 210 -c 0 -i 26 -a 0 -x {0.0 1.0 26 ------- null}
h -t 0.4368 -s 0 -d 1 -p cbr -e 210 -c 0 -i 26 -a 0 -x {0.0 1.0 -1 ------- null}
+ -t 0.438749999999999 -s 0 -d 1 -p cbr -e 210 -c 0 -i 117 -a 0 -x {0.0 1.0 117 ------- null}
+ -t 0.442499999999999 -s 0 -d 1 -p cbr -e 210 -c 0 -i 118 -a 0 -x {0.0 1.0 118 ------- null}
d -t 0.442499999999999 -s 0 -d 1 -p cbr -e 210 -c 0 -i 118 -a 0 -x {0.0 1.0 118 ------- null}
+ -t 0.446249999999999 -s 0 -d 1 -p cbr -e 210 -c 0 -i 119 -a 0 -x {0.0 1.0 119 ------- null}
d -t 0.446249999999999 -s 0 -d 1 -p cbr -e 210 -c 0 -i 119 -a 0 -x {0.0 1.0 119 ------- null}
r -t 0.4468 -s 0 -d 1 -p cbr -e 210 -c 0 -i 25 -a 0 -x {0.0 1.0 25 ------- null}
+ -t 0.449999999999999 -s 0 -d 1 -p cbr -e 210 -c 0 -i 120 -a 0 -x {0.0 1.0 120 ------- null}
d -t 0.449999999999999 -s 0 -d 1 -p cbr -e 210 -c 0 -i 120 -a 0 -x {0.0 1.0 120 ------- null}
- -t 0.4536 -s 0 -d 1 -p cbr -e 210 -c 0 -i 27 -a 0 -x {0.0 1.0 27 ------- null}
h -t 0.4536 -s 0 -d 1 -p cbr -e 210 -c 0 -i 27 -a 0 -x {0.0 1.0 -1 ------- null}
+ -t 0.453749999999999 -s 0 -d 1 -p cbr -e 210 -c 0 -i 121 -a 0 -x {0.0 1.0 121 ------- null}
+ -t 0.457499999999999 -s 0 -d 1 -p cbr -e 210 -c 0 -i 122 -a 0 -x {0.0 1.0 122 ------- null}
d -t 0.457499999999999 -s 0 -d 1 -p cbr -e 210 -c 0 -i 122 -a 0 -x {0.0 1.0 122 ------- null}
+ -t 0.461249999999999 -s 0 -d 1 -p cbr -e 210 -c 0 -i 123 -a 0 -x {0.0 1.0 123 ------- null}
d -t 0.461249999999999 -s 0 -d 1 -p cbr -e 210 -c 0 -i 123 -a 0 -x {0.0 1.0 123 ------- null}
r -t 0.4636 -s 0 -d 1 -p cbr -e 210 -c 0 -i 26 -a 0 -x {0.0 1.0 26 ------- null}
+ -t 0.464999999999999 -s 0 -d 1 -p cbr -e 210 -c 0 -i 124 -a 0 -x {0.0 1.0 124 ------- null}
d -t 0.464999999999999 -s 0 -d 1 -p cbr -e 210 -c 0 -i 124 -a 0 -x {0.0 1.0 124 ------- null}
+ -t 0.468749999999999 -s 0 -d 1 -p cbr -e 210 -c 0 -i 125 -a 0 -x {0.0 1.0 125 ------- null}
d -t 0.468749999999999 -s 0 -d 1 -p cbr -e 210 -c 0 -i 125 -a 0 -x {0.0 1.0 125 ------- null}
- -t 0.4704 -s 0 -d 1 -p cbr -e 210 -c 0 -i 28 -a 0 -x {0.0 1.0 28 ------- null}
h -t 0.4704 -s 0 -d 1 -p cbr -e 210 -c 0 -i 28 -a 0 -x {0.0 1.0 -1 ------- null}
+ -t 0.472499999999999 -s 0 -d 1 -p cbr -e 210 -c 0 -i 126 -a 0 -x {0.0 1.0 126 ------- null}
+ -t 0.476249999999999 -s 0 -d 1 -p cbr -e 210 -c 0 -i 127 -a 0 -x {0.0 1.0 127 ------- null}
d -t 0.476249999999999 -s 0 -d 1 -p cbr -e 210 -c 0 -i 127 -a 0 -x {0.0 1.0 127 ------- null}
+ -t 0.479999999999999 -s 0 -d 1 -p cbr -e 210 -c 0 -i 128 -a 0 -x {0.0 1.0 128 ------- null}
d -t 0.479999999999999 -s 0 -d 1 -p cbr -e 210 -c 0 -i 128 -a 0 -x {0.0 1.0 128 ------- null}
r -t 0.4804 -s 0 -d 1 -p cbr -e 210 -c 0 -i 27 -a 0 -x {0.0 1.0 27 ------- null}
+ -t 0.483749999999999 -s 0 -d 1 -p cbr -e 210 -c 0 -i 129 -a 0 -x {0.0 1.0 129 ------- null}
d -t 0.483749999999999 -s 0 -d 1 -p cbr -e 210 -c 0 -i 129 -a 0 -x {0.0 1.0 129 ------- null}
- -t 0.4872 -s 0 -d 1 -p cbr -e 210 -c 0 -i 29 -a 0 -x {0.0 1.0 29 ------- null}
h -t 0.4872 -s 0 -d 1 -p cbr -e 210 -c 0 -i 29 -a 0 -x {0.0 1.0 -1 ------- null}
+ -t 0.487499999999999 -s 0 -d 1 -p cbr -e 210 -c 0 -i 130 -a 0 -x {0.0 1.0 130 ------- null}
+ -t 0.491249999999999 -s 0 -d 1 -p cbr -e 210 -c 0 -i 131 -a 0 -x {0.0 1.0 131 ------- null}
d -t 0.491249999999999 -s 0 -d 1 -p cbr -e 210 -c 0 -i 131 -a 0 -x {0.0 1.0 131 ------- null}
+ -t 0.494999999999999 -s 0 -d 1 -p cbr -e 210 -c 0 -i 132 -a 0 -x {0.0 1.0 132 ------- null}
d -t 0.494999999999999 -s 0 -d 1 -p cbr -e 210 -c 0 -i 132 -a 0 -x {0.0 1.0 132 ------- null}
r -t 0.4972 -s 0 -d 1 -p cbr -e 210 -c 0 -i 28 -a 0 -x {0.0 1.0 28 ------- null}
+ -t 0.498749999999999 -s 0 -d 1 -p cbr -e 210 -c 0 -i 133 -a 0 -x {0.0 1.0 133 ------- null}
d -t 0.498749999999999 -s 0 -d 1 -p cbr -e 210 -c 0 -i 133 -a 0 -x {0.0 1.0 133 ------- null}
+ -t 0.502499999999999 -s 0 -d 1 -p cbr -e 210 -c 0 -i 134 -a 0 -x {0.0 1.0 134 ------- null}
d -t 0.502499999999999 -s 0 -d 1 -p cbr -e 210 -c 0 -i 134 -a 0 -x {0.0 1.0 134 ------- null}
- -t 0.504 -s 0 -d 1 -p cbr -e 210 -c 0 -i 30 -a 0 -x {0.0 1.0 30 ------- null}
h -t 0.504 -s 0 -d 1 -p cbr -e 210 -c 0 -i 30 -a 0 -x {0.0 1.0 -1 ------- null}
+ -t 0.506249999999999 -s 0 -d 1 -p cbr -e 210 -c 0 -i 135 -a 0 -x {0.0 1.0 135 ------- null}
+ -t 0.509999999999999 -s 0 -d 1 -p cbr -e 210 -c 0 -i 136 -a 0 -x {0.0 1.0 136 ------- null}
d -t 0.509999999999999 -s 0 -d 1 -p cbr -e 210 -c 0 -i 136 -a 0 -x {0.0 1.0 136 ------- null}
+ -t 0.513749999999999 -s 0 -d 1 -p cbr -e 210 -c 0 -i 137 -a 0 -x {0.0 1.0 137 ------- null}
d -t 0.513749999999999 -s 0 -d 1 -p cbr -e 210 -c 0 -i 137 -a 0 -x {0.0 1.0 137 ------- null}
r -t 0.514 -s 0 -d 1 -p cbr -e 210 -c 0 -i 29 -a 0 -x {0.0 1.0 29 ------- null}
+ -t 0.517499999999999 -s 0 -d 1 -p cbr -e 210 -c 0 -i 138 -a 0 -x {0.0 1.0 138 ------- null}
d -t 0.517499999999999 -s 0 -d 1 -p cbr -e 210 -c 0 -i 138 -a 0 -x {0.0 1.0 138 ------- null}
- -t 0.5208 -s 0 -d 1 -p cbr -e 210 -c 0 -i 31 -a 0 -x {0.0 1.0 31 ------- null}
h -t 0.5208 -s 0 -d 1 -p cbr -e 210 -c 0 -i 31 -a 0 -x {0.0 1.0 -1 ------- null}
+ -t 0.521249999999999 -s 0 -d 1 -p cbr -e 210 -c 0 -i 139 -a 0 -x {0.0 1.0 139 ------- null}
+ -t 0.524999999999999 -s 0 -d 1 -p cbr -e 210 -c 0 -i 140 -a 0 -x {0.0 1.0 140 ------- null}
d -t 0.524999999999999 -s 0 -d 1 -p cbr -e 210 -c 0 -i 140 -a 0 -x {0.0 1.0 140 ------- null}
+ -t 0.528749999999999 -s 0 -d 1 -p cbr -e 210 -c 0 -i 141 -a 0 -x {0.0 1.0 141 ------- null}
d -t 0.528749999999999 -s 0 -d 1 -p cbr -e 210 -c 0 -i 141 -a 0 -x {0.0 1.0 141 ------- null}
r -t 0.5308 -s 0 -d 1 -p cbr -e 210 -c 0 -i 30 -a 0 -x {0.0 1.0 30 ------- null}
+ -t 0.532499999999999 -s 0 -d 1 -p cbr -e 210 -c 0 -i 142 -a 0 -x {0.0 1.0 142 ------- null}
d -t 0.532499999999999 -s 0 -d 1 -p cbr -e 210 -c 0 -i 142 -a 0 -x {0.0 1.0 142 ------- null}
+ -t 0.536249999999999 -s 0 -d 1 -p cbr -e 210 -c 0 -i 143 -a 0 -x {0.0 1.0 143 ------- null}
d -t 0.536249999999999 -s 0 -d 1 -p cbr -e 210 -c 0 -i 143 -a 0 -x {0.0 1.0 143 ------- null}
- -t 0.5376 -s 0 -d 1 -p cbr -e 210 -c 0 -i 32 -a 0 -x {0.0 1.0 32 ------- null}
h -t 0.5376 -s 0 -d 1 -p cbr -e 210 -c 0 -i 32 -a 0 -x {0.0 1.0 -1 ------- null}
+ -t 0.539999999999999 -s 0 -d 1 -p cbr -e 210 -c 0 -i 144 -a 0 -x {0.0 1.0 144 ------- null}
+ -t 0.543749999999999 -s 0 -d 1 -p cbr -e 210 -c 0 -i 145 -a 0 -x {0.0 1.0 145 ------- null}
d -t 0.543749999999999 -s 0 -d 1 -p cbr -e 210 -c 0 -i 145 -a 0 -x {0.0 1.0 145 ------- null}
+ -t 0.547499999999999 -s 0 -d 1 -p cbr -e 210 -c 0 -i 146 -a 0 -x {0.0 1.0 146 ------- null}
d -t 0.547499999999999 -s 0 -d 1 -p cbr -e 210 -c 0 -i 146 -a 0 -x {0.0 1.0 146 ------- null}
r -t 0.5476 -s 0 -d 1 -p cbr -e 210 -c 0 -i 31 -a 0 -x {0.0 1.0 31 ------- null}
+ -t 0.551249999999999 -s 0 -d 1 -p cbr -e 210 -c 0 -i 147 -a 0 -x {0.0 1.0 147 ------- null}
d -t 0.551249999999999 -s 0 -d 1 -p cbr -e 210 -c 0 -i 147 -a 0 -x {0.0 1.0 147 ------- null}
- -t 0.5544 -s 0 -d 1 -p cbr -e 210 -c 0 -i 33 -a 0 -x {0.0 1.0 33 ------- null}
h -t 0.5544 -s 0 -d 1 -p cbr -e 210 -c 0 -i 33 -a 0 -x {0.0 1.0 -1 ------- null}
+ -t 0.554999999999999 -s 0 -d 1 -p cbr -e 210 -c 0 -i 148 -a 0 -x {0.0 1.0 148 ------- null}
+ -t 0.558749999999999 -s 0 -d 1 -p cbr -e 210 -c 0 -i 149 -a 0 -x {0.0 1.0 149 ------- null}
d -t 0.558749999999999 -s 0 -d 1 -p cbr -e 210 -c 0 -i 149 -a 0 -x {0.0 1.0 149 ------- null}
+ -t 0.562499999999999 -s 0 -d 1 -p cbr -e 210 -c 0 -i 150 -a 0 -x {0.0 1.0 150 ------- null}
d -t 0.562499999999999 -s 0 -d 1 -p cbr -e 210 -c 0 -i 150 -a 0 -x {0.0 1.0 150 ------- null}
r -t 0.5644 -s 0 -d 1 -p cbr -e 210 -c 0 -i 32 -a 0 -x {0.0 1.0 32 ------- null}
+ -t 0.566249999999999 -s 0 -d 1 -p cbr -e 210 -c 0 -i 151 -a 0 -x {0.0 1.0 151 ------- null}
d -t 0.566249999999999 -s 0 -d 1 -p cbr -e 210 -c 0 -i 151 -a 0 -x {0.0 1.0 151 ------- null}
+ -t 0.569999999999999 -s 0 -d 1 -p cbr -e 210 -c 0 -i 152 -a 0 -x {0.0 1.0 152 ------- null}
d -t 0.569999999999999 -s 0 -d 1 -p cbr -e 210 -c 0 -i 152 -a 0 -x {0.0 1.0 152 ------- null}
- -t 0.5712 -s 0 -d 1 -p cbr -e 210 -c 0 -i 34 -a 0 -x {0.0 1.0 34 ------- null}
h -t 0.5712 -s 0 -d 1 -p cbr -e 210 -c 0 -i 34 -a 0 -x {0.0 1.0 -1 ------- null}
+ -t 0.573749999999999 -s 0 -d 1 -p cbr -e 210 -c 0 -i 153 -a 0 -x {0.0 1.0 153 ------- null}
+ -t 0.577499999999999 -s 0 -d 1 -p cbr -e 210 -c 0 -i 154 -a 0 -x {0.0 1.0 154 ------- null}
d -t 0.577499999999999 -s 0 -d 1 -p cbr -e 210 -c 0 -i 154 -a 0 -x {0.0 1.0 154 ------- null}
r -t 0.5812 -s 0 -d 1 -p cbr -e 210 -c 0 -i 33 -a 0 -x {0.0 1.0 33 ------- null}
+ -t 0.581249999999999 -s 0 -d 1 -p cbr -e 210 -c 0 -i 155 -a 0 -x {0.0 1.0 155 ------- null}
d -t 0.581249999999999 -s 0 -d 1 -p cbr -e 210 -c 0 -i 155 -a 0 -x {0.0 1.0 155 ------- null}
+ -t 0.584999999999999 -s 0 -d 1 -p cbr -e 210 -c 0 -i 156 -a 0 -x {0.0 1.0 156 ------- null}
d -t 0.584999999999999 -s 0 -d 1 -p cbr -e 210 -c 0 -i 156 -a 0 -x {0.0 1.0 156 ------- null}
- -t 0.588 -s 0 -d 1 -p cbr -e 210 -c 0 -i 35 -a 0 -x {0.0 1.0 35 ------- null}
h -t 0.588 -s 0 -d 1 -p cbr -e 210 -c 0 -i 35 -a 0 -x {0.0 1.0 -1 ------- null}
+ -t 0.588749999999999 -s 0 -d 1 -p cbr -e 210 -c 0 -i 157 -a 0 -x {0.0 1.0 157 ------- null}
+ -t 0.592499999999999 -s 0 -d 1 -p cbr -e 210 -c 0 -i 158 -a 0 -x {0.0 1.0 158 ------- null}
d -t 0.592499999999999 -s 0 -d 1 -p cbr -e 210 -c 0 -i 158 -a 0 -x {0.0 1.0 158 ------- null}
+ -t 0.596249999999999 -s 0 -d 1 -p cbr -e 210 -c 0 -i 159 -a 0 -x {0.0 1.0 159 ------- null}
d -t 0.596249999999999 -s 0 -d 1 -p cbr -e 210 -c 0 -i 159 -a 0 -x {0.0 1.0 159 ------- null}
r -t 0.598 -s 0 -d 1 -p cbr -e 210 -c 0 -i 34 -a 0 -x {0.0 1.0 34 ------- null}
+ -t 0.599999999999999 -s 0 -d 1 -p cbr -e 210 -c 0 -i 160 -a 0 -x {0.0 1.0 160 ------- null}
d -t 0.599999999999999 -s 0 -d 1 -p cbr -e 210 -c 0 -i 160 -a 0 -x {0.0 1.0 160 ------- null}
+ -t 0.603749999999999 -s 0 -d 1 -p cbr -e 210 -c 0 -i 161 -a 0 -x {0.0 1.0 161 ------- null}
d -t 0.603749999999999 -s 0 -d 1 -p cbr -e 210 -c 0 -i 161 -a 0 -x {0.0 1.0 161 ------- null}
- -t 0.6048 -s 0 -d 1 -p cbr -e 210 -c 0 -i 36 -a 0 -x {0.0 1.0 36 ------- null}
h -t 0.6048 -s 0 -d 1 -p cbr -e 210 -c 0 -i 36 -a 0 -x {0.0 1.0 -1 ------- null}
+ -t 0.607499999999999 -s 0 -d 1 -p cbr -e 210 -c 0 -i 162 -a 0 -x {0.0 1.0 162 ------- null}